
     Program POST-PROC v.6.1 starts on  9Jan2026 at  2:48:51 

     This program is part of the open-source Quantum ESPRESSO suite
     for quantum simulation of materials; please cite
         "P. Giannozzi et al., J. Phys.:Condens. Matter 21 395502 (2009);
          URL http://www.quantum-espresso.org", 
     in publications or presentations arising from this work. More details at
     http://www.quantum-espresso.org/quote

     Parallel version (MPI), running on    48 processors
     R & G space division:  proc/nbgrp/npool/nimage =      48

   Info: using nr1, nr2, nr3 values from input

   Info: using nr1, nr2, nr3 values from input

     IMPORTANT: XC functional enforced from input :
     Exchange-correlation      = PBE ( 1  4  3  4 0 0)
     Any further DFT definition will be discarded
     Please, verify this is what you really want

     Message from routine readpp:
     file ./tmp_bot//crte2.save/Cr.pbe.UPF not found
               file Cr.pbe.UPF: wavefunction(s)  3P renormalized
     Message from routine readpp:
     file ./tmp_bot//crte2.save/Te.pbe.UPF not found
               file Te.pbe.UPF: wavefunction(s)  5S renormalized
 
     Parallelization info
     --------------------
     sticks:   dense  smooth     PW     G-vecs:    dense   smooth      PW
     Min          60      24      7                27916     7058    1154
     Max          61      25      9                28007     7121    1194
     Sum        2917    1159    361              1342695   339525   56063
 
     Generating pointlists ...
     new r_m :   0.2900 (alat units)  2.1152 (a.u.) for type    1
     new r_m :   0.2900 (alat units)  2.1152 (a.u.) for type    2

     negative rho (up, down):  2.882E-04 2.885E-04

     Calling punch_plot, plot_num =   0
     Writing data to file  tmp.pp
     Reading data from file  tmp.pp

     Writing data to be plotted to file bot.cube
     Plot Type: 3D                     Output format: Gaussian cube
 
     POST-PROC    :     9.28s CPU        10.59s WALL

 
   This run was terminated on:   2:49: 2   9Jan2026            

=------------------------------------------------------------------------------=
   JOB DONE.
=------------------------------------------------------------------------------=
