
     Program PWSCF v.6.1 (svn rev. 13369) starts on  6Jan2021 at 22:22:59 

     This program is part of the open-source Quantum ESPRESSO suite
     for quantum simulation of materials; please cite
         "P. Giannozzi et al., J. Phys.:Condens. Matter 21 395502 (2009);
          URL http://www.quantum-espresso.org", 
     in publications or presentations arising from this work. More details at
     http://www.quantum-espresso.org/quote

     Parallel version (MPI & OpenMP), running on      68 processor cores
     Number of MPI processes:                 1
     Threads/MPI process:                    68
     Reading input from nscf2.in

     Current dimensions of program PWSCF are:
     Max number of different atomic species (ntypx) = 10
     Max number of k-points (npk) =  40000
     Max angular momentum in pseudopotentials (lmaxx) =  3
               file Cr.rel.UPF: wavefunction(s)  3P 3P renormalized
               file Cr.rel.UPF: wavefunction(s)  3P 3P renormalized
               file Te.rel.UPF: wavefunction(s)  5S renormalized

     -------------------------------------
     Parameters for Dispersion Correction:
     -------------------------------------
       atom      VdW radius       C_6     

        Cr1        2.952        374.666
        Cr2        2.952        374.666
        Te         3.575       1101.101

     Fixed quantization axis for GGA:     0.000000    0.000000    1.000000

     Subspace diagonalization in iterative solution of the eigenvalue problem:
     a serial algorithm will be used

 
     G-vector sticks info
     --------------------
     sticks:   dense  smooth     PW     G-vecs:    dense   smooth      PW
     Sum        3201    3201    883               936139   936139  133323
 


     bravais-lattice index     =            0
     lattice parameter (alat)  =      13.0621  a.u.
     unit-cell volume          =   14912.2572 (a.u.)^3
     number of atoms/cell      =           24
     number of atomic types    =            3
     number of electrons       =       208.00
     number of Kohn-Sham states=          250
     kinetic-energy cutoff     =      60.0000  Ry
     charge density cutoff     =     240.0000  Ry
     Exchange-correlation      = PBE ( 1  4  3  4 0 0)
     Noncollinear calculation with spin-orbit


     celldm(1)=  13.062070  celldm(2)=   0.000000  celldm(3)=   0.000000
     celldm(4)=   0.000000  celldm(5)=   0.000000  celldm(6)=   0.000000

     crystal axes: (cart. coord. in units of alat)
               a(1) = (   0.953152  -0.000290   0.000000 )  
               a(2) = (  -0.000236   1.029625   0.000000 )  
               a(3) = (   0.000000   0.000000   6.818141 )  

     reciprocal axes: (cart. coord. in units 2 pi/alat)
               b(1) = (  1.049150  0.000240  0.000000 )  
               b(2) = (  0.000295  0.971228  0.000000 )  
               b(3) = (  0.000000  0.000000  0.146668 )  


     PseudoPot. # 1 for Cr read from file:
     ./Cr.rel.UPF
     MD5 check sum: a955aed648c70c10dedc71a56f441201
     Pseudo is Ultrasoft + core correction, Zval = 14.0
     Generated using "atomic" code by A. Dal Corso  v.6.2.2
     Using radial grid of 1183 points, 10 beta functions with: 
                l(1) =   0
                l(2) =   0
                l(3) =   1
                l(4) =   1
                l(5) =   1
                l(6) =   1
                l(7) =   2
                l(8) =   2
                l(9) =   2
               l(10) =   2
     Q(r) pseudized with 0 coefficients 


     PseudoPot. # 2 for Cr read from file:
     ./Cr.rel.UPF
     MD5 check sum: a955aed648c70c10dedc71a56f441201
     Pseudo is Ultrasoft + core correction, Zval = 14.0
     Generated using "atomic" code by A. Dal Corso  v.6.2.2
     Using radial grid of 1183 points, 10 beta functions with: 
                l(1) =   0
                l(2) =   0
                l(3) =   1
                l(4) =   1
                l(5) =   1
                l(6) =   1
                l(7) =   2
                l(8) =   2
                l(9) =   2
               l(10) =   2
     Q(r) pseudized with 0 coefficients 


     PseudoPot. # 3 for Te read from file:
     ./Te.rel.UPF
     MD5 check sum: 7fd30b6833abd190471e4dcc2367351b
     Pseudo is Ultrasoft + core correction, Zval =  6.0
     Generated using "atomic" code by A. Dal Corso  v.6.3
     Using radial grid of 1245 points, 10 beta functions with: 
                l(1) =   0
                l(2) =   0
                l(3) =   1
                l(4) =   1
                l(5) =   1
                l(6) =   1
                l(7) =   2
                l(8) =   2
                l(9) =   2
               l(10) =   2
     Q(r) pseudized with 0 coefficients 


     atomic species   valence    mass     pseudopotential
        Cr1           14.00    51.99610     Cr( 1.00)
        Cr2           14.00    51.99610     Cr( 1.00)
        Te             6.00   127.60000     Te( 1.00)


     Full LDA+U calculation (l_max = 2) with parameters (eV):
     U(  1) =   3.0000   J(  1) =   0.0000   B(  1) =   0.0000
     U(  2) =   3.0000   J(  2) =   0.0000   B(  2) =   0.0000
     LDA+U on averaged j=l+1/2,l-1/2 radial WFs



     No symmetry found


                                    s                        frac. trans.

      isym =  1     identity                                     

 Time Reversal            0
 cryst.   s( 1) = (     1          0          0      )
                  (     0          1          0      )
                  (     0          0          1      )

 cart.    s( 1) = (  1.0000000 -0.0000000  0.0000000 )
                  ( -0.0000000  1.0000000  0.0000000 )
                  (  0.0000000  0.0000000  1.0000000 )


   Cartesian axes

     site n.     atom                  positions (alat units)
         1           Te  tau(   1) = (   0.2434312   0.5426489   3.3765167  )
         2           Te  tau(   2) = (   0.2469776   0.8589845   4.4285747  )
         3           Te  tau(   3) = (   0.2468732   0.5476327   2.8434384  )
         4           Te  tau(   4) = (   0.2489027   0.8626029   3.8972421  )
         5           Te  tau(   5) = (   0.0067632   0.0307539   3.3791552  )
         6           Te  tau(   6) = (   0.4843597   0.0290685   3.3796255  )
         7           Te  tau(   7) = (   0.4873906   0.3423004   4.4304385  )
         8           Te  tau(   8) = (   0.0091967   0.0324191   2.8456358  )
         9           Te  tau(   9) = (   0.4828996   0.0322696   2.8452664  )
        10           Te  tau(  10) = (   0.4871046   0.3459309   3.8987382  )
        11           Te  tau(  11) = (   0.0087701   0.3421722   4.4304948  )
        12           Te  tau(  12) = (   0.0103453   0.3484183   3.8982561  )
        13           Te  tau(  13) = (   0.7229025   0.5430507   3.3768240  )
        14           Te  tau(  14) = (   0.7247685   0.8580976   4.4284116  )
        15           Te  tau(  15) = (   0.7203979   0.5473642   2.8433825  )
        16           Te  tau(  16) = (   0.7243894   0.8628854   3.8973704  )
        17           Cr1 tau(  17) = (   0.2445477   0.8495590   3.1129835  )
        18           Cr1 tau(  18) = (   0.2482116   0.5560196   4.1627669  )
        19           Cr1 tau(  19) = (   0.4833565   0.3338420   3.1141004  )
        20           Cr1 tau(  20) = (   0.0100092   0.0432066   4.1612235  )
        21           Cr2 tau(  21) = (   0.4862039   0.0415037   4.1648046  )
        22           Cr2 tau(  22) = (   0.0061763   0.3365226   3.1117077  )
        23           Cr2 tau(  23) = (   0.7213829   0.8502505   3.1116274  )
        24           Cr2 tau(  24) = (   0.7243061   0.5572925   4.1613725  )

   Crystallographic axes

     site n.     atom                  positions (cryst. coord.)
         1           Te  tau(   1) = (  0.2555264  0.5271075  0.4952254  )
         2           Te  tau(   2) = (  0.2593231  0.8343424  0.6495282  )
         3           Te  tau(   3) = (  0.2591387  0.5319489  0.4170401  )
         4           Te  tau(   4) = (  0.2613437  0.8378572  0.5715990  )
         5           Te  tau(   5) = (  0.0071030  0.0298710  0.4956124  )
         6           Te  tau(   6) = (  0.5081730  0.0283751  0.4956814  )
         7           Te  tau(   7) = (  0.5114282  0.3325954  0.6498016  )
         8           Te  tau(   8) = (  0.0096565  0.0314890  0.4173624  )
         9           Te  tau(   9) = (  0.5066419  0.0314836  0.4173083  )
        10           Te  tau(  10) = (  0.5111290  0.3361214  0.5718184  )
        11           Te  tau(  11) = (  0.0092834  0.3323297  0.6498098  )
        12           Te  tau(  12) = (  0.0109375  0.3383965  0.5717477  )
        13           Te  tau(  13) = (  0.7585639  0.5276392  0.4952705  )
        14           Te  tau(  14) = (  0.7605973  0.8336220  0.6495043  )
        15           Te  tau(  15) = (  0.7559372  0.5318279  0.4170320  )
        16           Te  tau(  16) = (  0.7602007  0.8382719  0.5716178  )
        17           Cr1 tau(  17) = (  0.2567715  0.8251874  0.4565737  )
        18           Cr1 tau(  18) = (  0.2605449  0.5400949  0.6105428  )
        19           Cr1 tau(  19) = (  0.5071938  0.3243793  0.4567375  )
        20           Cr1 tau(  20) = (  0.0105115  0.0419664  0.6103165  )
        21           Cr2 tau(  21) = (  0.5101109  0.0404531  0.6108417  )
        22           Cr2 tau(  22) = (  0.0065608  0.3268419  0.4563865  )
        23           Cr2 tau(  23) = (  0.7570433  0.8259997  0.4563748  )
        24           Cr2 tau(  24) = (  0.7600398  0.5414717  0.6103383  )

     number of k points=    16  gaussian smearing, width (Ry)=  0.0050
                       cart. coord. in units 2pi/alat
        k(    1) = (   0.0000000   0.0000000   0.0000000), wk =   0.0625000
        k(    2) = (   0.0000738   0.2428069   0.0000000), wk =   0.0625000
        k(    3) = (  -0.0001476  -0.4856138   0.0000000), wk =   0.0625000
        k(    4) = (  -0.0000738  -0.2428069   0.0000000), wk =   0.0625000
        k(    5) = (   0.2622875   0.0000601   0.0000000), wk =   0.0625000
        k(    6) = (   0.2623613   0.2428670   0.0000000), wk =   0.0625000
        k(    7) = (   0.2621400  -0.4855537   0.0000000), wk =   0.0625000
        k(    8) = (   0.2622138  -0.2427468   0.0000000), wk =   0.0625000
        k(    9) = (  -0.5245751  -0.0001202   0.0000000), wk =   0.0625000
        k(   10) = (  -0.5245013   0.2426867   0.0000000), wk =   0.0625000
        k(   11) = (  -0.5247227  -0.4857340   0.0000000), wk =   0.0625000
        k(   12) = (  -0.5246489  -0.2429271   0.0000000), wk =   0.0625000
        k(   13) = (  -0.2622875  -0.0000601   0.0000000), wk =   0.0625000
        k(   14) = (  -0.2622138   0.2427468   0.0000000), wk =   0.0625000
        k(   15) = (  -0.2624351  -0.4856739   0.0000000), wk =   0.0625000
        k(   16) = (  -0.2623613  -0.2428670   0.0000000), wk =   0.0625000

                       cryst. coord.
        k(    1) = (   0.0000000   0.0000000   0.0000000), wk =   0.0625000
        k(    2) = (   0.0000000   0.2500000   0.0000000), wk =   0.0625000
        k(    3) = (  -0.0000000  -0.5000000   0.0000000), wk =   0.0625000
        k(    4) = (  -0.0000000  -0.2500000   0.0000000), wk =   0.0625000
        k(    5) = (   0.2500000   0.0000000   0.0000000), wk =   0.0625000
        k(    6) = (   0.2500000   0.2500000   0.0000000), wk =   0.0625000
        k(    7) = (   0.2500000  -0.5000000   0.0000000), wk =   0.0625000
        k(    8) = (   0.2500000  -0.2500000   0.0000000), wk =   0.0625000
        k(    9) = (  -0.5000000  -0.0000000   0.0000000), wk =   0.0625000
        k(   10) = (  -0.5000000   0.2500000   0.0000000), wk =   0.0625000
        k(   11) = (  -0.5000000  -0.5000000   0.0000000), wk =   0.0625000
        k(   12) = (  -0.5000000  -0.2500000   0.0000000), wk =   0.0625000
        k(   13) = (  -0.2500000  -0.0000000   0.0000000), wk =   0.0625000
        k(   14) = (  -0.2500000   0.2500000   0.0000000), wk =   0.0625000
        k(   15) = (  -0.2500000  -0.5000000   0.0000000), wk =   0.0625000
        k(   16) = (  -0.2500000  -0.2500000   0.0000000), wk =   0.0625000

     Dense  grid:   936139 G-vectors     FFT dimensions: (  64,  72, 450)

     Estimated max dynamical RAM per process >    3249.68MB
     Generating pointlists ...
     new r_m :   0.1660 (alat units)  2.1679 (a.u.) for type    1
     new r_m :   0.1655 (alat units)  2.1622 (a.u.) for type    2
     new r_m :   0.1655 (alat units)  2.1622 (a.u.) for type    3

     Check: negative/imaginary core charge=   -0.000002    0.000000

 %%%%%%%%%%%%%%%%%%%%%%%%%%%%%%%%%%%%%%%%%%%%%%%%%%%%%%%%%%%%%%%%%%%%%%%%%%%%%%
     Error in routine read_rho_xml (1):
     dimensions do not match
 %%%%%%%%%%%%%%%%%%%%%%%%%%%%%%%%%%%%%%%%%%%%%%%%%%%%%%%%%%%%%%%%%%%%%%%%%%%%%%

     stopping ...
