
     Program PWSCF v.6.1 (svn rev. 13369) starts on  7Jan2021 at 10: 1: 8 

     This program is part of the open-source Quantum ESPRESSO suite
     for quantum simulation of materials; please cite
         "P. Giannozzi et al., J. Phys.:Condens. Matter 21 395502 (2009);
          URL http://www.quantum-espresso.org", 
     in publications or presentations arising from this work. More details at
     http://www.quantum-espresso.org/quote

     Parallel version (MPI & OpenMP), running on      68 processor cores
     Number of MPI processes:                 1
     Threads/MPI process:                    68
     Reading input from nscf.in

     Current dimensions of program PWSCF are:
     Max number of different atomic species (ntypx) = 10
     Max number of k-points (npk) =  40000
     Max angular momentum in pseudopotentials (lmaxx) =  3
               file Cr.rel.UPF: wavefunction(s)  3P 3P renormalized
               file Cr.rel.UPF: wavefunction(s)  3P 3P renormalized
               file Te.rel.UPF: wavefunction(s)  5S renormalized

     -------------------------------------
     Parameters for Dispersion Correction:
     -------------------------------------
       atom      VdW radius       C_6     

        Cr1        2.952        374.666
        Cr2        2.952        374.666
        Te         3.575       1101.101

     Subspace diagonalization in iterative solution of the eigenvalue problem:
     a serial algorithm will be used

 
     G-vector sticks info
     --------------------
     sticks:   dense  smooth     PW     G-vecs:    dense   smooth      PW
     Sum        3201    3201    883               936139   936139  133323
 


     bravais-lattice index     =            0
     lattice parameter (alat)  =      13.0621  a.u.
     unit-cell volume          =   14912.2572 (a.u.)^3
     number of atoms/cell      =           24
     number of atomic types    =            3
     number of electrons       =       208.00
     number of Kohn-Sham states=          250
     kinetic-energy cutoff     =      60.0000  Ry
     charge density cutoff     =     240.0000  Ry
     Exchange-correlation      = PBE ( 1  4  3  4 0 0)
     Noncollinear calculation with spin-orbit


     celldm(1)=  13.062070  celldm(2)=   0.000000  celldm(3)=   0.000000
     celldm(4)=   0.000000  celldm(5)=   0.000000  celldm(6)=   0.000000

     crystal axes: (cart. coord. in units of alat)
               a(1) = (   0.953152  -0.000290   0.000000 )  
               a(2) = (  -0.000236   1.029625   0.000000 )  
               a(3) = (   0.000000   0.000000   6.818141 )  

     reciprocal axes: (cart. coord. in units 2 pi/alat)
               b(1) = (  1.049150  0.000240  0.000000 )  
               b(2) = (  0.000295  0.971228  0.000000 )  
               b(3) = (  0.000000  0.000000  0.146668 )  


     PseudoPot. # 1 for Cr read from file:
     ./Cr.rel.UPF
     MD5 check sum: a955aed648c70c10dedc71a56f441201
     Pseudo is Ultrasoft + core correction, Zval = 14.0
     Generated using "atomic" code by A. Dal Corso  v.6.2.2
     Using radial grid of 1183 points, 10 beta functions with: 
                l(1) =   0
                l(2) =   0
                l(3) =   1
                l(4) =   1
                l(5) =   1
                l(6) =   1
                l(7) =   2
                l(8) =   2
                l(9) =   2
               l(10) =   2
     Q(r) pseudized with 0 coefficients 


     PseudoPot. # 2 for Cr read from file:
     ./Cr.rel.UPF
     MD5 check sum: a955aed648c70c10dedc71a56f441201
     Pseudo is Ultrasoft + core correction, Zval = 14.0
     Generated using "atomic" code by A. Dal Corso  v.6.2.2
     Using radial grid of 1183 points, 10 beta functions with: 
                l(1) =   0
                l(2) =   0
                l(3) =   1
                l(4) =   1
                l(5) =   1
                l(6) =   1
                l(7) =   2
                l(8) =   2
                l(9) =   2
               l(10) =   2
     Q(r) pseudized with 0 coefficients 


     PseudoPot. # 3 for Te read from file:
     ./Te.rel.UPF
     MD5 check sum: 7fd30b6833abd190471e4dcc2367351b
     Pseudo is Ultrasoft + core correction, Zval =  6.0
     Generated using "atomic" code by A. Dal Corso  v.6.3
     Using radial grid of 1245 points, 10 beta functions with: 
                l(1) =   0
                l(2) =   0
                l(3) =   1
                l(4) =   1
                l(5) =   1
                l(6) =   1
                l(7) =   2
                l(8) =   2
                l(9) =   2
               l(10) =   2
     Q(r) pseudized with 0 coefficients 


     atomic species   valence    mass     pseudopotential
        Cr1           14.00    51.99610     Cr( 1.00)
        Cr2           14.00    51.99610     Cr( 1.00)
        Te             6.00   127.60000     Te( 1.00)


     Full LDA+U calculation (l_max = 2) with parameters (eV):
     U(  1) =   3.0000   J(  1) =   0.0000   B(  1) =   0.0000
     U(  2) =   3.0000   J(  2) =   0.0000   B(  2) =   0.0000
     LDA+U on averaged j=l+1/2,l-1/2 radial WFs



     No symmetry found


                                    s                        frac. trans.

      isym =  1     identity                                     

 Time Reversal            0
 cryst.   s( 1) = (     1          0          0      )
                  (     0          1          0      )
                  (     0          0          1      )

 cart.    s( 1) = (  1.0000000 -0.0000000  0.0000000 )
                  ( -0.0000000  1.0000000  0.0000000 )
                  (  0.0000000  0.0000000  1.0000000 )


   Cartesian axes

     site n.     atom                  positions (alat units)
         1           Te  tau(   1) = (   0.2434312   0.5426489   3.3765167  )
         2           Te  tau(   2) = (   0.2469776   0.8589845   4.4285747  )
         3           Te  tau(   3) = (   0.2468732   0.5476327   2.8434384  )
         4           Te  tau(   4) = (   0.2489027   0.8626029   3.8972421  )
         5           Te  tau(   5) = (   0.0067632   0.0307539   3.3791552  )
         6           Te  tau(   6) = (   0.4843597   0.0290685   3.3796255  )
         7           Te  tau(   7) = (   0.4873906   0.3423004   4.4304385  )
         8           Te  tau(   8) = (   0.0091967   0.0324191   2.8456358  )
         9           Te  tau(   9) = (   0.4828996   0.0322696   2.8452664  )
        10           Te  tau(  10) = (   0.4871046   0.3459309   3.8987382  )
        11           Te  tau(  11) = (   0.0087701   0.3421722   4.4304948  )
        12           Te  tau(  12) = (   0.0103453   0.3484183   3.8982561  )
        13           Te  tau(  13) = (   0.7229025   0.5430507   3.3768240  )
        14           Te  tau(  14) = (   0.7247685   0.8580976   4.4284116  )
        15           Te  tau(  15) = (   0.7203979   0.5473642   2.8433825  )
        16           Te  tau(  16) = (   0.7243894   0.8628854   3.8973704  )
        17           Cr1 tau(  17) = (   0.2445477   0.8495590   3.1129835  )
        18           Cr1 tau(  18) = (   0.2482116   0.5560196   4.1627669  )
        19           Cr1 tau(  19) = (   0.4833565   0.3338420   3.1141004  )
        20           Cr1 tau(  20) = (   0.0100092   0.0432066   4.1612235  )
        21           Cr2 tau(  21) = (   0.4862039   0.0415037   4.1648046  )
        22           Cr2 tau(  22) = (   0.0061763   0.3365226   3.1117077  )
        23           Cr2 tau(  23) = (   0.7213829   0.8502505   3.1116274  )
        24           Cr2 tau(  24) = (   0.7243061   0.5572925   4.1613725  )

   Crystallographic axes

     site n.     atom                  positions (cryst. coord.)
         1           Te  tau(   1) = (  0.2555264  0.5271075  0.4952254  )
         2           Te  tau(   2) = (  0.2593231  0.8343424  0.6495282  )
         3           Te  tau(   3) = (  0.2591387  0.5319489  0.4170401  )
         4           Te  tau(   4) = (  0.2613437  0.8378572  0.5715990  )
         5           Te  tau(   5) = (  0.0071030  0.0298710  0.4956124  )
         6           Te  tau(   6) = (  0.5081730  0.0283751  0.4956814  )
         7           Te  tau(   7) = (  0.5114282  0.3325954  0.6498016  )
         8           Te  tau(   8) = (  0.0096565  0.0314890  0.4173624  )
         9           Te  tau(   9) = (  0.5066419  0.0314836  0.4173083  )
        10           Te  tau(  10) = (  0.5111290  0.3361214  0.5718184  )
        11           Te  tau(  11) = (  0.0092834  0.3323297  0.6498098  )
        12           Te  tau(  12) = (  0.0109375  0.3383965  0.5717477  )
        13           Te  tau(  13) = (  0.7585639  0.5276392  0.4952705  )
        14           Te  tau(  14) = (  0.7605973  0.8336220  0.6495043  )
        15           Te  tau(  15) = (  0.7559372  0.5318279  0.4170320  )
        16           Te  tau(  16) = (  0.7602007  0.8382719  0.5716178  )
        17           Cr1 tau(  17) = (  0.2567715  0.8251874  0.4565737  )
        18           Cr1 tau(  18) = (  0.2605449  0.5400949  0.6105428  )
        19           Cr1 tau(  19) = (  0.5071938  0.3243793  0.4567375  )
        20           Cr1 tau(  20) = (  0.0105115  0.0419664  0.6103165  )
        21           Cr2 tau(  21) = (  0.5101109  0.0404531  0.6108417  )
        22           Cr2 tau(  22) = (  0.0065608  0.3268419  0.4563865  )
        23           Cr2 tau(  23) = (  0.7570433  0.8259997  0.4563748  )
        24           Cr2 tau(  24) = (  0.7600398  0.5414717  0.6103383  )

     number of k points=    16  gaussian smearing, width (Ry)=  0.0050
                       cart. coord. in units 2pi/alat
        k(    1) = (   0.0000000   0.0000000   0.0000000), wk =   0.0625000
        k(    2) = (   0.0000738   0.2428069   0.0000000), wk =   0.0625000
        k(    3) = (  -0.0001476  -0.4856138   0.0000000), wk =   0.0625000
        k(    4) = (  -0.0000738  -0.2428069   0.0000000), wk =   0.0625000
        k(    5) = (   0.2622875   0.0000601   0.0000000), wk =   0.0625000
        k(    6) = (   0.2623613   0.2428670   0.0000000), wk =   0.0625000
        k(    7) = (   0.2621400  -0.4855537   0.0000000), wk =   0.0625000
        k(    8) = (   0.2622138  -0.2427468   0.0000000), wk =   0.0625000
        k(    9) = (  -0.5245751  -0.0001202   0.0000000), wk =   0.0625000
        k(   10) = (  -0.5245013   0.2426867   0.0000000), wk =   0.0625000
        k(   11) = (  -0.5247227  -0.4857340   0.0000000), wk =   0.0625000
        k(   12) = (  -0.5246489  -0.2429271   0.0000000), wk =   0.0625000
        k(   13) = (  -0.2622875  -0.0000601   0.0000000), wk =   0.0625000
        k(   14) = (  -0.2622138   0.2427468   0.0000000), wk =   0.0625000
        k(   15) = (  -0.2624351  -0.4856739   0.0000000), wk =   0.0625000
        k(   16) = (  -0.2623613  -0.2428670   0.0000000), wk =   0.0625000

                       cryst. coord.
        k(    1) = (   0.0000000   0.0000000   0.0000000), wk =   0.0625000
        k(    2) = (   0.0000000   0.2500000   0.0000000), wk =   0.0625000
        k(    3) = (  -0.0000000  -0.5000000   0.0000000), wk =   0.0625000
        k(    4) = (  -0.0000000  -0.2500000   0.0000000), wk =   0.0625000
        k(    5) = (   0.2500000   0.0000000   0.0000000), wk =   0.0625000
        k(    6) = (   0.2500000   0.2500000   0.0000000), wk =   0.0625000
        k(    7) = (   0.2500000  -0.5000000   0.0000000), wk =   0.0625000
        k(    8) = (   0.2500000  -0.2500000   0.0000000), wk =   0.0625000
        k(    9) = (  -0.5000000  -0.0000000   0.0000000), wk =   0.0625000
        k(   10) = (  -0.5000000   0.2500000   0.0000000), wk =   0.0625000
        k(   11) = (  -0.5000000  -0.5000000   0.0000000), wk =   0.0625000
        k(   12) = (  -0.5000000  -0.2500000   0.0000000), wk =   0.0625000
        k(   13) = (  -0.2500000  -0.0000000   0.0000000), wk =   0.0625000
        k(   14) = (  -0.2500000   0.2500000   0.0000000), wk =   0.0625000
        k(   15) = (  -0.2500000  -0.5000000   0.0000000), wk =   0.0625000
        k(   16) = (  -0.2500000  -0.2500000   0.0000000), wk =   0.0625000

     Dense  grid:   936139 G-vectors     FFT dimensions: (  64,  72, 450)

     Estimated max dynamical RAM per process >    3249.68MB
     Generating pointlists ...
     new r_m :   0.1660 (alat units)  2.1679 (a.u.) for type    1
     new r_m :   0.1655 (alat units)  2.1622 (a.u.) for type    2
     new r_m :   0.1655 (alat units)  2.1622 (a.u.) for type    3

     Check: negative/imaginary core charge=   -0.000002    0.000000
 
 -----------
Spin angles Theta, Phi (degree) =  30.0000  0.0000
 -----------

     The potential is recalculated from file :
     ./outdir_scf/crte2.save/charge-density.dat


     negative rho (up, down):  7.926E-02 3.960E-02
 --- in v_hubbard ---
Hub. E (dc, noflip, flip, total)    0.0000   0.0000   0.0000   0.0000
 -------
     Number of +U iterations with fixed ns =  0
     Starting occupations:
 --- enter write_ns ---
 LDA+U parameters:
U(  1) =   3.0000   J(  1) =   0.0000   B(  1) =   0.0000
U(  2) =   3.0000   J(  2) =   0.0000   B(  2) =   0.0000
atom   17   Tr[ns(na)] (up, down, total) =   0.00000  0.00000  0.00000
 eigenvalues: 
  0.000  0.000  0.000  0.000  0.000  0.000  0.000  0.000  0.000  0.000
 eigenvectors:
  1.000  0.000  0.000  0.000  0.000  0.000  0.000  0.000  0.000  0.000
  0.000  1.000  0.000  0.000  0.000  0.000  0.000  0.000  0.000  0.000
  0.000  0.000  1.000  0.000  0.000  0.000  0.000  0.000  0.000  0.000
  0.000  0.000  0.000  1.000  0.000  0.000  0.000  0.000  0.000  0.000
  0.000  0.000  0.000  0.000  1.000  0.000  0.000  0.000  0.000  0.000
  0.000  0.000  0.000  0.000  0.000  1.000  0.000  0.000  0.000  0.000
  0.000  0.000  0.000  0.000  0.000  0.000  1.000  0.000  0.000  0.000
  0.000  0.000  0.000  0.000  0.000  0.000  0.000  1.000  0.000  0.000
  0.000  0.000  0.000  0.000  0.000  0.000  0.000  0.000  1.000  0.000
  0.000  0.000  0.000  0.000  0.000  0.000  0.000  0.000  0.000  1.000
 occupations, | n_(i1, i2)^(sigma1, sigma2) |:
  0.000  0.000  0.000  0.000  0.000  0.000  0.000  0.000  0.000  0.000
  0.000  0.000  0.000  0.000  0.000  0.000  0.000  0.000  0.000  0.000
  0.000  0.000  0.000  0.000  0.000  0.000  0.000  0.000  0.000  0.000
  0.000  0.000  0.000  0.000  0.000  0.000  0.000  0.000  0.000  0.000
  0.000  0.000  0.000  0.000  0.000  0.000  0.000  0.000  0.000  0.000
  0.000  0.000  0.000  0.000  0.000  0.000  0.000  0.000  0.000  0.000
  0.000  0.000  0.000  0.000  0.000  0.000  0.000  0.000  0.000  0.000
  0.000  0.000  0.000  0.000  0.000  0.000  0.000  0.000  0.000  0.000
  0.000  0.000  0.000  0.000  0.000  0.000  0.000  0.000  0.000  0.000
  0.000  0.000  0.000  0.000  0.000  0.000  0.000  0.000  0.000  0.000
atomic mx, my, mz =     0.000000    0.000000    0.000000
atom   18   Tr[ns(na)] (up, down, total) =   0.00000  0.00000  0.00000
 eigenvalues: 
  0.000  0.000  0.000  0.000  0.000  0.000  0.000  0.000  0.000  0.000
 eigenvectors:
  1.000  0.000  0.000  0.000  0.000  0.000  0.000  0.000  0.000  0.000
  0.000  1.000  0.000  0.000  0.000  0.000  0.000  0.000  0.000  0.000
  0.000  0.000  1.000  0.000  0.000  0.000  0.000  0.000  0.000  0.000
  0.000  0.000  0.000  1.000  0.000  0.000  0.000  0.000  0.000  0.000
  0.000  0.000  0.000  0.000  1.000  0.000  0.000  0.000  0.000  0.000
  0.000  0.000  0.000  0.000  0.000  1.000  0.000  0.000  0.000  0.000
  0.000  0.000  0.000  0.000  0.000  0.000  1.000  0.000  0.000  0.000
  0.000  0.000  0.000  0.000  0.000  0.000  0.000  1.000  0.000  0.000
  0.000  0.000  0.000  0.000  0.000  0.000  0.000  0.000  1.000  0.000
  0.000  0.000  0.000  0.000  0.000  0.000  0.000  0.000  0.000  1.000
 occupations, | n_(i1, i2)^(sigma1, sigma2) |:
  0.000  0.000  0.000  0.000  0.000  0.000  0.000  0.000  0.000  0.000
  0.000  0.000  0.000  0.000  0.000  0.000  0.000  0.000  0.000  0.000
  0.000  0.000  0.000  0.000  0.000  0.000  0.000  0.000  0.000  0.000
  0.000  0.000  0.000  0.000  0.000  0.000  0.000  0.000  0.000  0.000
  0.000  0.000  0.000  0.000  0.000  0.000  0.000  0.000  0.000  0.000
  0.000  0.000  0.000  0.000  0.000  0.000  0.000  0.000  0.000  0.000
  0.000  0.000  0.000  0.000  0.000  0.000  0.000  0.000  0.000  0.000
  0.000  0.000  0.000  0.000  0.000  0.000  0.000  0.000  0.000  0.000
  0.000  0.000  0.000  0.000  0.000  0.000  0.000  0.000  0.000  0.000
  0.000  0.000  0.000  0.000  0.000  0.000  0.000  0.000  0.000  0.000
atomic mx, my, mz =     0.000000    0.000000    0.000000
atom   19   Tr[ns(na)] (up, down, total) =   0.00000  0.00000  0.00000
 eigenvalues: 
  0.000  0.000  0.000  0.000  0.000  0.000  0.000  0.000  0.000  0.000
 eigenvectors:
  1.000  0.000  0.000  0.000  0.000  0.000  0.000  0.000  0.000  0.000
  0.000  1.000  0.000  0.000  0.000  0.000  0.000  0.000  0.000  0.000
  0.000  0.000  1.000  0.000  0.000  0.000  0.000  0.000  0.000  0.000
  0.000  0.000  0.000  1.000  0.000  0.000  0.000  0.000  0.000  0.000
  0.000  0.000  0.000  0.000  1.000  0.000  0.000  0.000  0.000  0.000
  0.000  0.000  0.000  0.000  0.000  1.000  0.000  0.000  0.000  0.000
  0.000  0.000  0.000  0.000  0.000  0.000  1.000  0.000  0.000  0.000
  0.000  0.000  0.000  0.000  0.000  0.000  0.000  1.000  0.000  0.000
  0.000  0.000  0.000  0.000  0.000  0.000  0.000  0.000  1.000  0.000
  0.000  0.000  0.000  0.000  0.000  0.000  0.000  0.000  0.000  1.000
 occupations, | n_(i1, i2)^(sigma1, sigma2) |:
  0.000  0.000  0.000  0.000  0.000  0.000  0.000  0.000  0.000  0.000
  0.000  0.000  0.000  0.000  0.000  0.000  0.000  0.000  0.000  0.000
  0.000  0.000  0.000  0.000  0.000  0.000  0.000  0.000  0.000  0.000
  0.000  0.000  0.000  0.000  0.000  0.000  0.000  0.000  0.000  0.000
  0.000  0.000  0.000  0.000  0.000  0.000  0.000  0.000  0.000  0.000
  0.000  0.000  0.000  0.000  0.000  0.000  0.000  0.000  0.000  0.000
  0.000  0.000  0.000  0.000  0.000  0.000  0.000  0.000  0.000  0.000
  0.000  0.000  0.000  0.000  0.000  0.000  0.000  0.000  0.000  0.000
  0.000  0.000  0.000  0.000  0.000  0.000  0.000  0.000  0.000  0.000
  0.000  0.000  0.000  0.000  0.000  0.000  0.000  0.000  0.000  0.000
atomic mx, my, mz =     0.000000    0.000000    0.000000
atom   20   Tr[ns(na)] (up, down, total) =   0.00000  0.00000  0.00000
 eigenvalues: 
  0.000  0.000  0.000  0.000  0.000  0.000  0.000  0.000  0.000  0.000
 eigenvectors:
  1.000  0.000  0.000  0.000  0.000  0.000  0.000  0.000  0.000  0.000
  0.000  1.000  0.000  0.000  0.000  0.000  0.000  0.000  0.000  0.000
  0.000  0.000  1.000  0.000  0.000  0.000  0.000  0.000  0.000  0.000
  0.000  0.000  0.000  1.000  0.000  0.000  0.000  0.000  0.000  0.000
  0.000  0.000  0.000  0.000  1.000  0.000  0.000  0.000  0.000  0.000
  0.000  0.000  0.000  0.000  0.000  1.000  0.000  0.000  0.000  0.000
  0.000  0.000  0.000  0.000  0.000  0.000  1.000  0.000  0.000  0.000
  0.000  0.000  0.000  0.000  0.000  0.000  0.000  1.000  0.000  0.000
  0.000  0.000  0.000  0.000  0.000  0.000  0.000  0.000  1.000  0.000
  0.000  0.000  0.000  0.000  0.000  0.000  0.000  0.000  0.000  1.000
 occupations, | n_(i1, i2)^(sigma1, sigma2) |:
  0.000  0.000  0.000  0.000  0.000  0.000  0.000  0.000  0.000  0.000
  0.000  0.000  0.000  0.000  0.000  0.000  0.000  0.000  0.000  0.000
  0.000  0.000  0.000  0.000  0.000  0.000  0.000  0.000  0.000  0.000
  0.000  0.000  0.000  0.000  0.000  0.000  0.000  0.000  0.000  0.000
  0.000  0.000  0.000  0.000  0.000  0.000  0.000  0.000  0.000  0.000
  0.000  0.000  0.000  0.000  0.000  0.000  0.000  0.000  0.000  0.000
  0.000  0.000  0.000  0.000  0.000  0.000  0.000  0.000  0.000  0.000
  0.000  0.000  0.000  0.000  0.000  0.000  0.000  0.000  0.000  0.000
  0.000  0.000  0.000  0.000  0.000  0.000  0.000  0.000  0.000  0.000
  0.000  0.000  0.000  0.000  0.000  0.000  0.000  0.000  0.000  0.000
atomic mx, my, mz =     0.000000    0.000000    0.000000
atom   21   Tr[ns(na)] (up, down, total) =   0.00000  0.00000  0.00000
 eigenvalues: 
  0.000  0.000  0.000  0.000  0.000  0.000  0.000  0.000  0.000  0.000
 eigenvectors:
  1.000  0.000  0.000  0.000  0.000  0.000  0.000  0.000  0.000  0.000
  0.000  1.000  0.000  0.000  0.000  0.000  0.000  0.000  0.000  0.000
  0.000  0.000  1.000  0.000  0.000  0.000  0.000  0.000  0.000  0.000
  0.000  0.000  0.000  1.000  0.000  0.000  0.000  0.000  0.000  0.000
  0.000  0.000  0.000  0.000  1.000  0.000  0.000  0.000  0.000  0.000
  0.000  0.000  0.000  0.000  0.000  1.000  0.000  0.000  0.000  0.000
  0.000  0.000  0.000  0.000  0.000  0.000  1.000  0.000  0.000  0.000
  0.000  0.000  0.000  0.000  0.000  0.000  0.000  1.000  0.000  0.000
  0.000  0.000  0.000  0.000  0.000  0.000  0.000  0.000  1.000  0.000
  0.000  0.000  0.000  0.000  0.000  0.000  0.000  0.000  0.000  1.000
 occupations, | n_(i1, i2)^(sigma1, sigma2) |:
  0.000  0.000  0.000  0.000  0.000  0.000  0.000  0.000  0.000  0.000
  0.000  0.000  0.000  0.000  0.000  0.000  0.000  0.000  0.000  0.000
  0.000  0.000  0.000  0.000  0.000  0.000  0.000  0.000  0.000  0.000
  0.000  0.000  0.000  0.000  0.000  0.000  0.000  0.000  0.000  0.000
  0.000  0.000  0.000  0.000  0.000  0.000  0.000  0.000  0.000  0.000
  0.000  0.000  0.000  0.000  0.000  0.000  0.000  0.000  0.000  0.000
  0.000  0.000  0.000  0.000  0.000  0.000  0.000  0.000  0.000  0.000
  0.000  0.000  0.000  0.000  0.000  0.000  0.000  0.000  0.000  0.000
  0.000  0.000  0.000  0.000  0.000  0.000  0.000  0.000  0.000  0.000
  0.000  0.000  0.000  0.000  0.000  0.000  0.000  0.000  0.000  0.000
atomic mx, my, mz =     0.000000    0.000000    0.000000
atom   22   Tr[ns(na)] (up, down, total) =   0.00000  0.00000  0.00000
 eigenvalues: 
  0.000  0.000  0.000  0.000  0.000  0.000  0.000  0.000  0.000  0.000
 eigenvectors:
  1.000  0.000  0.000  0.000  0.000  0.000  0.000  0.000  0.000  0.000
  0.000  1.000  0.000  0.000  0.000  0.000  0.000  0.000  0.000  0.000
  0.000  0.000  1.000  0.000  0.000  0.000  0.000  0.000  0.000  0.000
  0.000  0.000  0.000  1.000  0.000  0.000  0.000  0.000  0.000  0.000
  0.000  0.000  0.000  0.000  1.000  0.000  0.000  0.000  0.000  0.000
  0.000  0.000  0.000  0.000  0.000  1.000  0.000  0.000  0.000  0.000
  0.000  0.000  0.000  0.000  0.000  0.000  1.000  0.000  0.000  0.000
  0.000  0.000  0.000  0.000  0.000  0.000  0.000  1.000  0.000  0.000
  0.000  0.000  0.000  0.000  0.000  0.000  0.000  0.000  1.000  0.000
  0.000  0.000  0.000  0.000  0.000  0.000  0.000  0.000  0.000  1.000
 occupations, | n_(i1, i2)^(sigma1, sigma2) |:
  0.000  0.000  0.000  0.000  0.000  0.000  0.000  0.000  0.000  0.000
  0.000  0.000  0.000  0.000  0.000  0.000  0.000  0.000  0.000  0.000
  0.000  0.000  0.000  0.000  0.000  0.000  0.000  0.000  0.000  0.000
  0.000  0.000  0.000  0.000  0.000  0.000  0.000  0.000  0.000  0.000
  0.000  0.000  0.000  0.000  0.000  0.000  0.000  0.000  0.000  0.000
  0.000  0.000  0.000  0.000  0.000  0.000  0.000  0.000  0.000  0.000
  0.000  0.000  0.000  0.000  0.000  0.000  0.000  0.000  0.000  0.000
  0.000  0.000  0.000  0.000  0.000  0.000  0.000  0.000  0.000  0.000
  0.000  0.000  0.000  0.000  0.000  0.000  0.000  0.000  0.000  0.000
  0.000  0.000  0.000  0.000  0.000  0.000  0.000  0.000  0.000  0.000
atomic mx, my, mz =     0.000000    0.000000    0.000000
atom   23   Tr[ns(na)] (up, down, total) =   0.00000  0.00000  0.00000
 eigenvalues: 
  0.000  0.000  0.000  0.000  0.000  0.000  0.000  0.000  0.000  0.000
 eigenvectors:
  1.000  0.000  0.000  0.000  0.000  0.000  0.000  0.000  0.000  0.000
  0.000  1.000  0.000  0.000  0.000  0.000  0.000  0.000  0.000  0.000
  0.000  0.000  1.000  0.000  0.000  0.000  0.000  0.000  0.000  0.000
  0.000  0.000  0.000  1.000  0.000  0.000  0.000  0.000  0.000  0.000
  0.000  0.000  0.000  0.000  1.000  0.000  0.000  0.000  0.000  0.000
  0.000  0.000  0.000  0.000  0.000  1.000  0.000  0.000  0.000  0.000
  0.000  0.000  0.000  0.000  0.000  0.000  1.000  0.000  0.000  0.000
  0.000  0.000  0.000  0.000  0.000  0.000  0.000  1.000  0.000  0.000
  0.000  0.000  0.000  0.000  0.000  0.000  0.000  0.000  1.000  0.000
  0.000  0.000  0.000  0.000  0.000  0.000  0.000  0.000  0.000  1.000
 occupations, | n_(i1, i2)^(sigma1, sigma2) |:
  0.000  0.000  0.000  0.000  0.000  0.000  0.000  0.000  0.000  0.000
  0.000  0.000  0.000  0.000  0.000  0.000  0.000  0.000  0.000  0.000
  0.000  0.000  0.000  0.000  0.000  0.000  0.000  0.000  0.000  0.000
  0.000  0.000  0.000  0.000  0.000  0.000  0.000  0.000  0.000  0.000
  0.000  0.000  0.000  0.000  0.000  0.000  0.000  0.000  0.000  0.000
  0.000  0.000  0.000  0.000  0.000  0.000  0.000  0.000  0.000  0.000
  0.000  0.000  0.000  0.000  0.000  0.000  0.000  0.000  0.000  0.000
  0.000  0.000  0.000  0.000  0.000  0.000  0.000  0.000  0.000  0.000
  0.000  0.000  0.000  0.000  0.000  0.000  0.000  0.000  0.000  0.000
  0.000  0.000  0.000  0.000  0.000  0.000  0.000  0.000  0.000  0.000
atomic mx, my, mz =     0.000000    0.000000    0.000000
atom   24   Tr[ns(na)] (up, down, total) =   0.00000  0.00000  0.00000
 eigenvalues: 
  0.000  0.000  0.000  0.000  0.000  0.000  0.000  0.000  0.000  0.000
 eigenvectors:
  1.000  0.000  0.000  0.000  0.000  0.000  0.000  0.000  0.000  0.000
  0.000  1.000  0.000  0.000  0.000  0.000  0.000  0.000  0.000  0.000
  0.000  0.000  1.000  0.000  0.000  0.000  0.000  0.000  0.000  0.000
  0.000  0.000  0.000  1.000  0.000  0.000  0.000  0.000  0.000  0.000
  0.000  0.000  0.000  0.000  1.000  0.000  0.000  0.000  0.000  0.000
  0.000  0.000  0.000  0.000  0.000  1.000  0.000  0.000  0.000  0.000
  0.000  0.000  0.000  0.000  0.000  0.000  1.000  0.000  0.000  0.000
  0.000  0.000  0.000  0.000  0.000  0.000  0.000  1.000  0.000  0.000
  0.000  0.000  0.000  0.000  0.000  0.000  0.000  0.000  1.000  0.000
  0.000  0.000  0.000  0.000  0.000  0.000  0.000  0.000  0.000  1.000
 occupations, | n_(i1, i2)^(sigma1, sigma2) |:
  0.000  0.000  0.000  0.000  0.000  0.000  0.000  0.000  0.000  0.000
  0.000  0.000  0.000  0.000  0.000  0.000  0.000  0.000  0.000  0.000
  0.000  0.000  0.000  0.000  0.000  0.000  0.000  0.000  0.000  0.000
  0.000  0.000  0.000  0.000  0.000  0.000  0.000  0.000  0.000  0.000
  0.000  0.000  0.000  0.000  0.000  0.000  0.000  0.000  0.000  0.000
  0.000  0.000  0.000  0.000  0.000  0.000  0.000  0.000  0.000  0.000
  0.000  0.000  0.000  0.000  0.000  0.000  0.000  0.000  0.000  0.000
  0.000  0.000  0.000  0.000  0.000  0.000  0.000  0.000  0.000  0.000
  0.000  0.000  0.000  0.000  0.000  0.000  0.000  0.000  0.000  0.000
  0.000  0.000  0.000  0.000  0.000  0.000  0.000  0.000  0.000  0.000
atomic mx, my, mz =     0.000000    0.000000    0.000000
N of occupied +U levels =    0.000000
 --- exit write_ns ---
 Atomic wfc used for LDA+U Projector are NOT orthogonalized
     Starting wfc are  288 randomized atomic wfcs

     Band Structure Calculation
     CG style diagonalization

     Computing kpt #:     1
     c_bands: 22 eigenvalues not converged
     total cpu time spent up to now is     8669.3 secs

     Computing kpt #:     2
     c_bands: 17 eigenvalues not converged
     total cpu time spent up to now is    17160.2 secs

     Computing kpt #:     3
     c_bands: 20 eigenvalues not converged
     total cpu time spent up to now is    25554.0 secs

     Computing kpt #:     4
     c_bands: 18 eigenvalues not converged
     total cpu time spent up to now is    34148.8 secs

     Computing kpt #:     5
     c_bands: 17 eigenvalues not converged
     total cpu time spent up to now is    42556.4 secs

     Computing kpt #:     6
     c_bands: 14 eigenvalues not converged
     total cpu time spent up to now is    50866.8 secs

     Computing kpt #:     7
     c_bands: 11 eigenvalues not converged
     total cpu time spent up to now is    59156.3 secs

     Computing kpt #:     8
     c_bands: 14 eigenvalues not converged
     total cpu time spent up to now is    67528.4 secs

     Computing kpt #:     9
     c_bands: 18 eigenvalues not converged
     total cpu time spent up to now is    75783.3 secs

     Computing kpt #:    10
     c_bands: 18 eigenvalues not converged
     total cpu time spent up to now is    84175.4 secs

     Computing kpt #:    11
     c_bands: 18 eigenvalues not converged
     total cpu time spent up to now is    92398.5 secs

     Computing kpt #:    12
     c_bands: 18 eigenvalues not converged
     total cpu time spent up to now is   100757.2 secs

     Computing kpt #:    13
     c_bands: 16 eigenvalues not converged
     total cpu time spent up to now is   109370.5 secs

     Computing kpt #:    14
     c_bands: 13 eigenvalues not converged
     total cpu time spent up to now is   117841.7 secs

     Computing kpt #:    15
     c_bands: 12 eigenvalues not converged
     total cpu time spent up to now is   126212.5 secs

     Computing kpt #:    16
     c_bands: 14 eigenvalues not converged
     total cpu time spent up to now is   134779.8 secs

     ethr =  4.81E-15,  avg # of iterations = 88.0

     total cpu time spent up to now is   134779.8 secs

     End of band structure calculation
 
 ------
 eband, Ef (eV) =   -3940.40986119334      -0.155407403028426     
 ------
 

          k = 0.0000 0.0000 0.0000 (117157 PWs)   bands (ev):

   -73.6287 -73.6272 -73.6265 -73.6208 -73.6202 -73.6195 -73.6165 -73.6090
   -69.8766 -69.8706 -69.8699 -69.8644 -69.8576 -69.8569 -69.8527 -69.8414
   -45.4935 -45.4908 -45.4899 -45.4869 -45.4826 -45.4799 -45.4755 -45.4731
   -45.1823 -45.1786 -45.1775 -45.1757 -45.1733 -45.1698 -45.1655 -45.1632
   -44.7571 -44.7543 -44.7535 -44.7506 -44.7449 -44.7423 -44.7377 -44.7355
   -41.4472 -41.4424 -41.4423 -41.4369 -41.4311 -41.4293 -41.4242 -41.4140
   -41.1883 -41.1822 -41.1808 -41.1751 -41.1698 -41.1688 -41.1614 -41.1537
   -40.7557 -40.7505 -40.7486 -40.7373 -40.7306 -40.7246 -40.7199 -40.7096
   -13.7419 -13.6169 -13.5818 -13.4719 -13.1086 -12.9684 -12.8527 -12.7318
   -12.7087 -12.6828 -12.4923 -12.4465 -12.1902 -12.1407 -11.9131 -11.8612
   -11.6491 -11.6450 -11.5921 -11.5859 -11.3915 -11.3876 -11.3380 -11.3330
   -11.1201 -11.1169 -11.0611 -11.0585 -10.8138 -10.8101 -10.7523 -10.7498
    -6.4987  -6.4286  -6.2898  -6.2095  -6.1112  -6.0659  -6.0572  -6.0325
    -6.0238  -5.9934  -5.9862  -5.9731  -5.9684  -5.9596  -5.5606  -5.5108
    -5.4759  -5.4699  -5.4675  -5.4432  -5.4386  -5.4104  -5.4093  -5.3822
    -5.3791  -5.3675  -5.3406  -5.3396  -4.5466  -4.5133  -4.3270  -4.2864
    -3.8710  -3.8695  -3.8384  -3.8366  -3.6634  -3.5978  -3.5928  -3.5402
    -3.5336  -3.4663  -3.4550  -3.4498  -3.3947  -3.3795  -3.3523  -3.3418
    -3.3167  -3.3032  -3.0079  -3.0011  -2.9253  -2.9187  -2.8522  -2.8445
    -2.8412  -2.7773  -2.7651  -2.7563  -2.7508  -2.6503  -2.5911  -2.4949
    -2.2763  -2.1739  -2.1562  -2.1001  -1.8941  -1.8690  -1.8587  -1.7849
    -1.7829  -1.7583  -1.7492  -1.7217  -1.7078  -1.6952  -1.6489  -1.6339
    -1.4950  -1.4942  -1.2176  -1.2011  -1.1949  -1.1758  -1.1723  -1.1699
    -1.1591  -1.1391  -1.1349  -1.0121  -0.7196  -0.7162  -0.6174  -0.6100
    -0.5672  -0.5600  -0.4939  -0.4875  -0.4854  -0.4139  -0.3942  -0.3921
    -0.0569   0.0584   0.0622   0.0661   0.0708   0.1000   0.1027   0.1108
     0.1169   0.1236   0.2527   0.2618   0.3375   0.4170   0.4209   0.4628
     0.6034   0.6148   0.6778   0.6979   0.7604   0.7636   0.8726   0.8852
     0.8912   0.9529   1.1228   1.1669   1.3568   1.3636   1.4387   1.4408
     1.4416   1.5290   1.5639   1.7033   1.7468   1.7696   1.7889   1.7960
     1.8270   1.9206   1.9423   2.0320   2.1978   2.2079   2.2558   2.2619
     2.2656   2.2861

     occupation numbers 
     1.0000   1.0000   1.0000   1.0000   1.0000   1.0000   1.0000   1.0000
     1.0000   1.0000   1.0000   1.0000   1.0000   1.0000   1.0000   1.0000
     1.0000   1.0000   1.0000   1.0000   1.0000   1.0000   1.0000   1.0000
     1.0000   1.0000   1.0000   1.0000   1.0000   1.0000   1.0000   1.0000
     1.0000   1.0000   1.0000   1.0000   1.0000   1.0000   1.0000   1.0000
     1.0000   1.0000   1.0000   1.0000   1.0000   1.0000   1.0000   1.0000
     1.0000   1.0000   1.0000   1.0000   1.0000   1.0000   1.0000   1.0000
     1.0000   1.0000   1.0000   1.0000   1.0000   1.0000   1.0000   1.0000
     1.0000   1.0000   1.0000   1.0000   1.0000   1.0000   1.0000   1.0000
     1.0000   1.0000   1.0000   1.0000   1.0000   1.0000   1.0000   1.0000
     1.0000   1.0000   1.0000   1.0000   1.0000   1.0000   1.0000   1.0000
     1.0000   1.0000   1.0000   1.0000   1.0000   1.0000   1.0000   1.0000
     1.0000   1.0000   1.0000   1.0000   1.0000   1.0000   1.0000   1.0000
     1.0000   1.0000   1.0000   1.0000   1.0000   1.0000   1.0000   1.0000
     1.0000   1.0000   1.0000   1.0000   1.0000   1.0000   1.0000   1.0000
     1.0000   1.0000   1.0000   1.0000   1.0000   1.0000   1.0000   1.0000
     1.0000   1.0000   1.0000   1.0000   1.0000   1.0000   1.0000   1.0000
     1.0000   1.0000   1.0000   1.0000   1.0000   1.0000   1.0000   1.0000
     1.0000   1.0000   1.0000   1.0000   1.0000   1.0000   1.0000   1.0000
     1.0000   1.0000   1.0000   1.0000   1.0000   1.0000   1.0000   1.0000
     1.0000   1.0000   1.0000   1.0000   1.0000   1.0000   1.0000   1.0000
     1.0000   1.0000   1.0000   1.0000   1.0000   1.0000   1.0000   1.0000
     1.0000   1.0000   1.0000   1.0000   1.0000   1.0000   1.0000   1.0000
     1.0000   1.0000   1.0000   1.0000   1.0000   1.0000   1.0000   1.0000
     1.0000   1.0000   1.0000   1.0000   1.0000   1.0000   1.0000   1.0000
     0.0202   0.0000   0.0000   0.0000   0.0000   0.0000   0.0000   0.0000
     0.0000   0.0000   0.0000   0.0000   0.0000   0.0000   0.0000   0.0000
     0.0000   0.0000   0.0000   0.0000   0.0000   0.0000   0.0000   0.0000
     0.0000   0.0000   0.0000   0.0000   0.0000   0.0000   0.0000   0.0000
     0.0000   0.0000   0.0000   0.0000   0.0000   0.0000   0.0000   0.0000
     0.0000   0.0000   0.0000   0.0000   0.0000   0.0000   0.0000   0.0000
     0.0000   0.0000

          k = 0.0001 0.2428 0.0000 (117071 PWs)   bands (ev):

   -73.6287 -73.6274 -73.6266 -73.6207 -73.6201 -73.6196 -73.6165 -73.6090
   -69.8766 -69.8707 -69.8700 -69.8644 -69.8575 -69.8570 -69.8528 -69.8414
   -45.4936 -45.4908 -45.4900 -45.4869 -45.4825 -45.4796 -45.4757 -45.4732
   -45.1823 -45.1786 -45.1775 -45.1758 -45.1733 -45.1697 -45.1655 -45.1632
   -44.7572 -44.7543 -44.7536 -44.7506 -44.7447 -44.7419 -44.7380 -44.7356
   -41.4471 -41.4424 -41.4423 -41.4369 -41.4309 -41.4295 -41.4242 -41.4140
   -41.1883 -41.1822 -41.1808 -41.1750 -41.1697 -41.1689 -41.1614 -41.1537
   -40.7557 -40.7506 -40.7486 -40.7373 -40.7303 -40.7244 -40.7201 -40.7097
   -13.6250 -13.5037 -13.4579 -13.3507 -12.9978 -12.9248 -12.8661 -12.8426
   -12.7403 -12.7036 -12.6346 -12.5981 -12.3583 -12.2769 -12.0858 -12.0011
   -11.6409 -11.6361 -11.5872 -11.5813 -11.3813 -11.3773 -11.3311 -11.3265
   -11.1132 -11.1097 -11.0572 -11.0552 -10.8062 -10.8021 -10.7479 -10.7461
    -6.2403  -6.2321  -6.1824  -6.1777  -6.1625  -6.1578  -6.1005  -6.0938
    -6.0513  -5.9742  -5.9344  -5.8437  -5.8379  -5.7108  -5.5965  -5.5928
    -5.5454  -5.5414  -5.5295  -5.5252  -5.4831  -5.4783  -5.4489  -5.2398
    -5.2008  -5.1610  -5.0573  -4.9823  -4.6812  -4.6475  -4.3848  -4.3802
    -3.8306  -3.8246  -3.7927  -3.7858  -3.6325  -3.5862  -3.5795  -3.5283
    -3.5202  -3.4845  -3.1318  -3.0854  -3.0741  -3.0434  -3.0342  -3.0223
    -2.9887  -2.9796  -2.9482  -2.9372  -2.9328  -2.9200  -2.9085  -2.8187
    -2.8141  -2.7849  -2.7556  -2.7473  -2.6503  -2.6032  -2.5935  -2.5705
    -2.5376  -2.5105  -2.5011  -2.4751  -2.4578  -2.4488  -2.3321  -2.2520
    -1.8637  -1.8549  -1.7877  -1.7869  -1.7427  -1.7300  -1.6179  -1.5680
    -1.5102  -1.5006  -1.2865  -1.2456  -1.1817  -1.1807  -1.1510  -1.1433
    -1.1387  -1.1351  -1.1262  -1.1097  -0.7982  -0.7931  -0.7428  -0.7291
    -0.5701  -0.5663  -0.5433  -0.5404  -0.5248  -0.4972  -0.4960  -0.4642
     0.0120   0.0154   0.0221   0.0592   0.0631   0.1634   0.1951   0.2269
     0.2712   0.2778   0.3325   0.3623   0.3909   0.4083   0.4117   0.4676
     0.5400   0.5873   0.5949   0.5996   0.6786   0.8553   0.8622   0.8660
     0.8820   0.9022   0.9315   1.1032   1.1526   1.1601   1.2921   1.2961
     1.5775   1.6330   1.6781   1.7046   1.7155   1.7175   1.7571   1.8129
     1.8190   1.8267   1.8343   2.0037   2.0557   2.0705   2.0797   2.2252
     2.3175   2.3199

     occupation numbers 
     1.0000   1.0000   1.0000   1.0000   1.0000   1.0000   1.0000   1.0000
     1.0000   1.0000   1.0000   1.0000   1.0000   1.0000   1.0000   1.0000
     1.0000   1.0000   1.0000   1.0000   1.0000   1.0000   1.0000   1.0000
     1.0000   1.0000   1.0000   1.0000   1.0000   1.0000   1.0000   1.0000
     1.0000   1.0000   1.0000   1.0000   1.0000   1.0000   1.0000   1.0000
     1.0000   1.0000   1.0000   1.0000   1.0000   1.0000   1.0000   1.0000
     1.0000   1.0000   1.0000   1.0000   1.0000   1.0000   1.0000   1.0000
     1.0000   1.0000   1.0000   1.0000   1.0000   1.0000   1.0000   1.0000
     1.0000   1.0000   1.0000   1.0000   1.0000   1.0000   1.0000   1.0000
     1.0000   1.0000   1.0000   1.0000   1.0000   1.0000   1.0000   1.0000
     1.0000   1.0000   1.0000   1.0000   1.0000   1.0000   1.0000   1.0000
     1.0000   1.0000   1.0000   1.0000   1.0000   1.0000   1.0000   1.0000
     1.0000   1.0000   1.0000   1.0000   1.0000   1.0000   1.0000   1.0000
     1.0000   1.0000   1.0000   1.0000   1.0000   1.0000   1.0000   1.0000
     1.0000   1.0000   1.0000   1.0000   1.0000   1.0000   1.0000   1.0000
     1.0000   1.0000   1.0000   1.0000   1.0000   1.0000   1.0000   1.0000
     1.0000   1.0000   1.0000   1.0000   1.0000   1.0000   1.0000   1.0000
     1.0000   1.0000   1.0000   1.0000   1.0000   1.0000   1.0000   1.0000
     1.0000   1.0000   1.0000   1.0000   1.0000   1.0000   1.0000   1.0000
     1.0000   1.0000   1.0000   1.0000   1.0000   1.0000   1.0000   1.0000
     1.0000   1.0000   1.0000   1.0000   1.0000   1.0000   1.0000   1.0000
     1.0000   1.0000   1.0000   1.0000   1.0000   1.0000   1.0000   1.0000
     1.0000   1.0000   1.0000   1.0000   1.0000   1.0000   1.0000   1.0000
     1.0000   1.0000   1.0000   1.0000   1.0000   1.0000   1.0000   1.0000
     1.0000   1.0000   1.0000   1.0000   1.0000   1.0000   1.0000   1.0000
     0.0003   0.0002   0.0001   0.0000   0.0000   0.0000   0.0000   0.0000
     0.0000   0.0000   0.0000   0.0000   0.0000   0.0000   0.0000   0.0000
     0.0000   0.0000   0.0000   0.0000   0.0000   0.0000   0.0000   0.0000
     0.0000   0.0000   0.0000   0.0000   0.0000   0.0000   0.0000   0.0000
     0.0000   0.0000   0.0000   0.0000   0.0000   0.0000   0.0000   0.0000
     0.0000   0.0000   0.0000   0.0000   0.0000   0.0000   0.0000   0.0000
     0.0000   0.0000

          k =-0.0001-0.4856 0.0000 (116958 PWs)   bands (ev):

   -73.6287 -73.6275 -73.6267 -73.6207 -73.6201 -73.6197 -73.6165 -73.6090
   -69.8767 -69.8708 -69.8700 -69.8644 -69.8574 -69.8571 -69.8528 -69.8414
   -45.4936 -45.4908 -45.4901 -45.4869 -45.4823 -45.4792 -45.4760 -45.4733
   -45.1823 -45.1786 -45.1776 -45.1758 -45.1732 -45.1697 -45.1655 -45.1632
   -44.7573 -44.7542 -44.7537 -44.7506 -44.7445 -44.7414 -44.7384 -44.7357
   -41.4471 -41.4424 -41.4423 -41.4369 -41.4305 -41.4299 -41.4243 -41.4141
   -41.1884 -41.1822 -41.1808 -41.1750 -41.1696 -41.1689 -41.1614 -41.1536
   -40.7558 -40.7507 -40.7487 -40.7374 -40.7301 -40.7242 -40.7202 -40.7098
   -13.3141 -13.3053 -13.2041 -13.1982 -13.1260 -13.1163 -13.0274 -13.0203
   -12.7090 -12.6975 -12.5901 -12.5820 -12.4453 -12.4326 -12.3225 -12.3136
   -11.6322 -11.6271 -11.5824 -11.5767 -11.3711 -11.3664 -11.3243 -11.3201
   -11.1062 -11.1021 -11.0533 -11.0519 -10.7985 -10.7939 -10.7436 -10.7425
    -6.3811  -6.3756  -6.3156  -6.3118  -6.2991  -6.2928  -6.2237  -6.2181
    -5.7035  -5.7004  -5.6416  -5.6382  -5.6350  -5.6291  -5.6164  -5.6089
    -5.5710  -5.5690  -5.4917  -5.4814  -5.3107  -5.3042  -5.0683  -5.0626
    -4.5575  -4.5467  -4.4544  -4.4417  -4.4370  -4.4339  -4.4194  -4.4077
    -3.8693  -3.8631  -3.8113  -3.8069  -3.8027  -3.7941  -3.7711  -3.7662
    -3.7606  -3.7508  -3.7495  -3.7397  -3.5794  -3.5705  -3.5233  -3.5131
    -3.1727  -3.1577  -3.0195  -3.0038  -2.7328  -2.7268  -2.6750  -2.6632
    -2.6235  -2.6171  -2.5833  -2.5771  -2.5539  -2.5511  -2.5327  -2.5170
    -2.4701  -2.4569  -2.4560  -2.4441  -2.3404  -2.3301  -2.2458  -2.2377
    -1.8287  -1.8103  -1.7900  -1.7784  -1.7075  -1.6917  -1.5053  -1.4900
    -1.4568  -1.4504  -1.4358  -1.4286  -1.2314  -1.2310  -1.2062  -1.2041
    -1.0133  -0.9967  -0.9898  -0.9670  -0.9624  -0.9505  -0.9392  -0.9368
    -0.6245  -0.6230  -0.6180  -0.6155  -0.5892  -0.5830  -0.4761  -0.4724
    -0.0500  -0.0480   0.0162   0.0188   0.1492   0.1532   0.2261   0.2310
     0.2817   0.2904   0.4689   0.4834   0.4853   0.4979   0.5123   0.5181
     0.5648   0.5713   0.5873   0.5914   0.6539   0.6579   0.8461   0.8545
     0.9404   0.9423   1.0369   1.0416   1.1186   1.1321   1.2012   1.2112
     1.3456   1.3563   1.4538   1.4656   1.5390   1.5564   1.7108   1.7170
     1.8056   1.8088   1.8267   1.8391   1.9203   1.9310   2.3018   2.3323
     2.3332   2.3400

     occupation numbers 
     1.0000   1.0000   1.0000   1.0000   1.0000   1.0000   1.0000   1.0000
     1.0000   1.0000   1.0000   1.0000   1.0000   1.0000   1.0000   1.0000
     1.0000   1.0000   1.0000   1.0000   1.0000   1.0000   1.0000   1.0000
     1.0000   1.0000   1.0000   1.0000   1.0000   1.0000   1.0000   1.0000
     1.0000   1.0000   1.0000   1.0000   1.0000   1.0000   1.0000   1.0000
     1.0000   1.0000   1.0000   1.0000   1.0000   1.0000   1.0000   1.0000
     1.0000   1.0000   1.0000   1.0000   1.0000   1.0000   1.0000   1.0000
     1.0000   1.0000   1.0000   1.0000   1.0000   1.0000   1.0000   1.0000
     1.0000   1.0000   1.0000   1.0000   1.0000   1.0000   1.0000   1.0000
     1.0000   1.0000   1.0000   1.0000   1.0000   1.0000   1.0000   1.0000
     1.0000   1.0000   1.0000   1.0000   1.0000   1.0000   1.0000   1.0000
     1.0000   1.0000   1.0000   1.0000   1.0000   1.0000   1.0000   1.0000
     1.0000   1.0000   1.0000   1.0000   1.0000   1.0000   1.0000   1.0000
     1.0000   1.0000   1.0000   1.0000   1.0000   1.0000   1.0000   1.0000
     1.0000   1.0000   1.0000   1.0000   1.0000   1.0000   1.0000   1.0000
     1.0000   1.0000   1.0000   1.0000   1.0000   1.0000   1.0000   1.0000
     1.0000   1.0000   1.0000   1.0000   1.0000   1.0000   1.0000   1.0000
     1.0000   1.0000   1.0000   1.0000   1.0000   1.0000   1.0000   1.0000
     1.0000   1.0000   1.0000   1.0000   1.0000   1.0000   1.0000   1.0000
     1.0000   1.0000   1.0000   1.0000   1.0000   1.0000   1.0000   1.0000
     1.0000   1.0000   1.0000   1.0000   1.0000   1.0000   1.0000   1.0000
     1.0000   1.0000   1.0000   1.0000   1.0000   1.0000   1.0000   1.0000
     1.0000   1.0000   1.0000   1.0000   1.0000   1.0000   1.0000   1.0000
     1.0000   1.0000   1.0000   1.0000   1.0000   1.0000   1.0000   1.0000
     1.0000   1.0000   1.0000   1.0000   1.0000   1.0000   1.0000   1.0000
     0.0142   0.0128   0.0002   0.0001   0.0000   0.0000   0.0000   0.0000
     0.0000   0.0000   0.0000   0.0000   0.0000   0.0000   0.0000   0.0000
     0.0000   0.0000   0.0000   0.0000   0.0000   0.0000   0.0000   0.0000
     0.0000   0.0000   0.0000   0.0000   0.0000   0.0000   0.0000   0.0000
     0.0000   0.0000   0.0000   0.0000   0.0000   0.0000   0.0000   0.0000
     0.0000   0.0000   0.0000   0.0000   0.0000   0.0000   0.0000   0.0000
     0.0000   0.0000

          k =-0.0001-0.2428 0.0000 (117071 PWs)   bands (ev):

   -73.6287 -73.6274 -73.6266 -73.6207 -73.6201 -73.6196 -73.6165 -73.6090
   -69.8766 -69.8707 -69.8700 -69.8644 -69.8575 -69.8570 -69.8528 -69.8414
   -45.4936 -45.4908 -45.4900 -45.4869 -45.4825 -45.4796 -45.4757 -45.4732
   -45.1823 -45.1786 -45.1775 -45.1758 -45.1733 -45.1697 -45.1655 -45.1632
   -44.7572 -44.7542 -44.7536 -44.7506 -44.7447 -44.7419 -44.7380 -44.7356
   -41.4471 -41.4424 -41.4423 -41.4369 -41.4309 -41.4295 -41.4242 -41.4140
   -41.1883 -41.1822 -41.1808 -41.1750 -41.1697 -41.1689 -41.1614 -41.1537
   -40.7557 -40.7506 -40.7486 -40.7373 -40.7303 -40.7244 -40.7201 -40.7097
   -13.6250 -13.5037 -13.4579 -13.3507 -12.9978 -12.9248 -12.8661 -12.8426
   -12.7403 -12.7036 -12.6346 -12.5981 -12.3583 -12.2769 -12.0858 -12.0011
   -11.6406 -11.6364 -11.5871 -11.5813 -11.3815 -11.3771 -11.3311 -11.3265
   -11.1132 -11.1097 -11.0572 -11.0552 -10.8062 -10.8021 -10.7479 -10.7461
    -6.2390  -6.2342  -6.1824  -6.1769  -6.1634  -6.1565  -6.1009  -6.0938
    -6.0514  -5.9743  -5.9342  -5.8437  -5.8380  -5.7107  -5.5962  -5.5931
    -5.5452  -5.5415  -5.5297  -5.5249  -5.4833  -5.4783  -5.4489  -5.2392
    -5.2052  -5.1575  -5.0537  -4.9860  -4.6820  -4.6467  -4.3844  -4.3805
    -3.8302  -3.8249  -3.7924  -3.7860  -3.6325  -3.5861  -3.5796  -3.5283
    -3.5204  -3.4845  -3.1273  -3.0849  -3.0756  -3.0447  -3.0330  -3.0255
    -2.9888  -2.9772  -2.9477  -2.9391  -2.9323  -2.9229  -2.9108  -2.8200
    -2.8120  -2.7802  -2.7545  -2.7499  -2.6521  -2.6018  -2.5939  -2.5704
    -2.5363  -2.5110  -2.5012  -2.4759  -2.4544  -2.4499  -2.3333  -2.2530
    -1.8643  -1.8537  -1.7886  -1.7863  -1.7426  -1.7306  -1.6179  -1.5682
    -1.5100  -1.5003  -1.2867  -1.2458  -1.1819  -1.1795  -1.1514  -1.1416
    -1.1399  -1.1354  -1.1263  -1.1093  -0.7982  -0.7932  -0.7427  -0.7295
    -0.5702  -0.5667  -0.5440  -0.5402  -0.5248  -0.4968  -0.4952  -0.4638
     0.0117   0.0154   0.0221   0.0596   0.0634   0.1629   0.1958   0.2269
     0.2731   0.2771   0.3322   0.3612   0.3938   0.4079   0.4109   0.4638
     0.5403   0.5877   0.5930   0.5992   0.6789   0.8562   0.8620   0.8656
     0.8831   0.9028   0.9323   1.1032   1.1532   1.1595   1.2930   1.2955
     1.5773   1.6335   1.6775   1.7051   1.7156   1.7188   1.7562   1.8128
     1.8200   1.8260   1.8361   2.0038   2.0559   2.0688   2.0802   2.2247
     2.3173   2.3191

     occupation numbers 
     1.0000   1.0000   1.0000   1.0000   1.0000   1.0000   1.0000   1.0000
     1.0000   1.0000   1.0000   1.0000   1.0000   1.0000   1.0000   1.0000
     1.0000   1.0000   1.0000   1.0000   1.0000   1.0000   1.0000   1.0000
     1.0000   1.0000   1.0000   1.0000   1.0000   1.0000   1.0000   1.0000
     1.0000   1.0000   1.0000   1.0000   1.0000   1.0000   1.0000   1.0000
     1.0000   1.0000   1.0000   1.0000   1.0000   1.0000   1.0000   1.0000
     1.0000   1.0000   1.0000   1.0000   1.0000   1.0000   1.0000   1.0000
     1.0000   1.0000   1.0000   1.0000   1.0000   1.0000   1.0000   1.0000
     1.0000   1.0000   1.0000   1.0000   1.0000   1.0000   1.0000   1.0000
     1.0000   1.0000   1.0000   1.0000   1.0000   1.0000   1.0000   1.0000
     1.0000   1.0000   1.0000   1.0000   1.0000   1.0000   1.0000   1.0000
     1.0000   1.0000   1.0000   1.0000   1.0000   1.0000   1.0000   1.0000
     1.0000   1.0000   1.0000   1.0000   1.0000   1.0000   1.0000   1.0000
     1.0000   1.0000   1.0000   1.0000   1.0000   1.0000   1.0000   1.0000
     1.0000   1.0000   1.0000   1.0000   1.0000   1.0000   1.0000   1.0000
     1.0000   1.0000   1.0000   1.0000   1.0000   1.0000   1.0000   1.0000
     1.0000   1.0000   1.0000   1.0000   1.0000   1.0000   1.0000   1.0000
     1.0000   1.0000   1.0000   1.0000   1.0000   1.0000   1.0000   1.0000
     1.0000   1.0000   1.0000   1.0000   1.0000   1.0000   1.0000   1.0000
     1.0000   1.0000   1.0000   1.0000   1.0000   1.0000   1.0000   1.0000
     1.0000   1.0000   1.0000   1.0000   1.0000   1.0000   1.0000   1.0000
     1.0000   1.0000   1.0000   1.0000   1.0000   1.0000   1.0000   1.0000
     1.0000   1.0000   1.0000   1.0000   1.0000   1.0000   1.0000   1.0000
     1.0000   1.0000   1.0000   1.0000   1.0000   1.0000   1.0000   1.0000
     1.0000   1.0000   1.0000   1.0000   1.0000   1.0000   1.0000   1.0000
     0.0003   0.0002   0.0001   0.0000   0.0000   0.0000   0.0000   0.0000
     0.0000   0.0000   0.0000   0.0000   0.0000   0.0000   0.0000   0.0000
     0.0000   0.0000   0.0000   0.0000   0.0000   0.0000   0.0000   0.0000
     0.0000   0.0000   0.0000   0.0000   0.0000   0.0000   0.0000   0.0000
     0.0000   0.0000   0.0000   0.0000   0.0000   0.0000   0.0000   0.0000
     0.0000   0.0000   0.0000   0.0000   0.0000   0.0000   0.0000   0.0000
     0.0000   0.0000

          k = 0.2623 0.0001 0.0000 (117087 PWs)   bands (ev):

   -73.6294 -73.6279 -73.6272 -73.6216 -73.6208 -73.6203 -73.6173 -73.6098
   -69.8773 -69.8713 -69.8706 -69.8652 -69.8582 -69.8577 -69.8535 -69.8422
   -45.4922 -45.4901 -45.4885 -45.4858 -45.4833 -45.4804 -45.4761 -45.4738
   -45.1817 -45.1782 -45.1768 -45.1753 -45.1736 -45.1702 -45.1657 -45.1634
   -44.7559 -44.7531 -44.7518 -44.7495 -44.7457 -44.7434 -44.7389 -44.7364
   -41.4470 -41.4422 -41.4422 -41.4368 -41.4309 -41.4292 -41.4241 -41.4139
   -41.1877 -41.1817 -41.1803 -41.1752 -41.1695 -41.1688 -41.1615 -41.1537
   -40.7532 -40.7473 -40.7462 -40.7342 -40.7325 -40.7272 -40.7219 -40.7123
   -13.5583 -13.4348 -13.3937 -13.2849 -12.9266 -12.7884 -12.6679 -12.5692
   -12.5260 -12.5224 -12.3255 -12.2819 -12.2818 -12.1808 -12.0700 -12.0384
   -11.9919 -11.9786 -11.7587 -11.7099 -11.6941 -11.6427 -11.6346 -11.5833
   -11.4091 -11.3740 -11.3601 -11.2947 -11.1503 -11.1468 -10.8458 -10.8414
    -6.2965  -6.2240  -6.0915  -6.0125  -5.9235  -5.7911  -5.6916  -5.6163
    -5.5612  -5.4977  -5.3805  -5.3259  -5.2923  -5.1916  -5.1711  -5.1656
    -5.1139  -5.0573  -5.0494  -5.0292  -5.0140  -4.9955  -4.9774  -4.9407
    -4.7411  -4.7065  -4.6861  -4.5602  -4.5476  -4.5207  -4.4894  -4.4094
    -4.3918  -4.3649  -4.2824  -4.2163  -4.1872  -4.1542  -3.9874  -3.9224
    -3.9101  -3.8921  -3.8825  -3.8678  -3.5138  -3.4603  -3.4367  -3.4129
    -3.4032  -3.3208  -2.7428  -2.6829  -2.6720  -2.6613  -2.6232  -2.5664
    -2.5297  -2.4733  -2.4258  -2.4086  -2.3659  -2.2872  -2.2437  -2.1994
    -2.1864  -2.1151  -2.0519  -2.0271  -2.0099  -2.0049  -1.9459  -1.9270
    -1.9217  -1.8930  -1.8912  -1.7528  -1.7416  -1.7288  -1.7019  -1.6984
    -1.6726  -1.6582  -1.6525  -1.6347  -1.5986  -1.5666  -1.5501  -1.4252
    -1.1821  -1.1787  -1.1566  -1.1224  -1.0883  -1.0172  -0.9818  -0.9599
    -0.9592  -0.9014  -0.8942  -0.8645  -0.8346  -0.7673  -0.6305  -0.6256
    -0.5921  -0.5795  -0.5526  -0.5479  -0.4363  -0.2899  -0.2778  -0.2561
    -0.1951  -0.1892  -0.1326  -0.1027  -0.0148   0.0294   0.0488   0.0808
     0.0892   0.1758   0.3317   0.5825   0.6442   0.7466   0.7943   0.8409
     0.8614   0.8947   0.9215   0.9323   0.9584   0.9645   1.0426   1.0697
     1.2033   1.2637   1.5320   1.6172   1.6262   1.6844   1.6855   1.7185
     1.8896   1.9356   1.9429   2.0509   2.1596   2.1622   2.2865   2.3359
     2.3747   2.5342

     occupation numbers 
     1.0000   1.0000   1.0000   1.0000   1.0000   1.0000   1.0000   1.0000
     1.0000   1.0000   1.0000   1.0000   1.0000   1.0000   1.0000   1.0000
     1.0000   1.0000   1.0000   1.0000   1.0000   1.0000   1.0000   1.0000
     1.0000   1.0000   1.0000   1.0000   1.0000   1.0000   1.0000   1.0000
     1.0000   1.0000   1.0000   1.0000   1.0000   1.0000   1.0000   1.0000
     1.0000   1.0000   1.0000   1.0000   1.0000   1.0000   1.0000   1.0000
     1.0000   1.0000   1.0000   1.0000   1.0000   1.0000   1.0000   1.0000
     1.0000   1.0000   1.0000   1.0000   1.0000   1.0000   1.0000   1.0000
     1.0000   1.0000   1.0000   1.0000   1.0000   1.0000   1.0000   1.0000
     1.0000   1.0000   1.0000   1.0000   1.0000   1.0000   1.0000   1.0000
     1.0000   1.0000   1.0000   1.0000   1.0000   1.0000   1.0000   1.0000
     1.0000   1.0000   1.0000   1.0000   1.0000   1.0000   1.0000   1.0000
     1.0000   1.0000   1.0000   1.0000   1.0000   1.0000   1.0000   1.0000
     1.0000   1.0000   1.0000   1.0000   1.0000   1.0000   1.0000   1.0000
     1.0000   1.0000   1.0000   1.0000   1.0000   1.0000   1.0000   1.0000
     1.0000   1.0000   1.0000   1.0000   1.0000   1.0000   1.0000   1.0000
     1.0000   1.0000   1.0000   1.0000   1.0000   1.0000   1.0000   1.0000
     1.0000   1.0000   1.0000   1.0000   1.0000   1.0000   1.0000   1.0000
     1.0000   1.0000   1.0000   1.0000   1.0000   1.0000   1.0000   1.0000
     1.0000   1.0000   1.0000   1.0000   1.0000   1.0000   1.0000   1.0000
     1.0000   1.0000   1.0000   1.0000   1.0000   1.0000   1.0000   1.0000
     1.0000   1.0000   1.0000   1.0000   1.0000   1.0000   1.0000   1.0000
     1.0000   1.0000   1.0000   1.0000   1.0000   1.0000   1.0000   1.0000
     1.0000   1.0000   1.0000   1.0000   1.0000   1.0000   1.0000   1.0000
     1.0000   1.0000   1.0000   1.0000   1.0000   1.0000   1.0000   1.0000
     1.0000   1.0000   1.0000   1.0000   1.0000   0.9974   0.9945   0.9818
     0.7951   0.7586   0.3179   0.1367   0.0017   0.0001   0.0000   0.0000
     0.0000   0.0000   0.0000   0.0000   0.0000   0.0000   0.0000   0.0000
     0.0000   0.0000   0.0000   0.0000   0.0000   0.0000   0.0000   0.0000
     0.0000   0.0000   0.0000   0.0000   0.0000   0.0000   0.0000   0.0000
     0.0000   0.0000   0.0000   0.0000   0.0000   0.0000   0.0000   0.0000
     0.0000   0.0000

          k = 0.2624 0.2429 0.0000 (117067 PWs)   bands (ev):

   -73.6294 -73.6280 -73.6272 -73.6216 -73.6208 -73.6204 -73.6173 -73.6098
   -69.8773 -69.8714 -69.8706 -69.8652 -69.8582 -69.8578 -69.8535 -69.8422
   -45.4922 -45.4900 -45.4887 -45.4858 -45.4833 -45.4802 -45.4763 -45.4739
   -45.1817 -45.1782 -45.1768 -45.1753 -45.1736 -45.1702 -45.1657 -45.1634
   -44.7559 -44.7530 -44.7519 -44.7495 -44.7457 -44.7432 -44.7391 -44.7365
   -41.4469 -41.4422 -41.4422 -41.4368 -41.4307 -41.4294 -41.4241 -41.4139
   -41.1877 -41.1817 -41.1803 -41.1752 -41.1694 -41.1689 -41.1615 -41.1537
   -40.7531 -40.7474 -40.7463 -40.7342 -40.7324 -40.7272 -40.7221 -40.7124
   -13.4429 -13.3232 -13.2713 -13.1653 -12.8190 -12.7574 -12.6923 -12.6743
   -12.5591 -12.5313 -12.4639 -12.4192 -12.2113 -12.1911 -12.1268 -12.0990
   -11.9837 -11.9254 -11.8949 -11.8416 -11.7554 -11.7112 -11.6230 -11.5202
   -11.4950 -11.4525 -11.3355 -11.2463 -11.2290 -11.2025 -10.9454 -10.8994
    -5.8619  -5.7890  -5.7860  -5.7461  -5.7157  -5.6887  -5.6636  -5.6556
    -5.6055  -5.5310  -5.3474  -5.2769  -5.2719  -5.2633  -5.1894  -5.1197
    -5.0722  -5.0597  -5.0462  -5.0389  -5.0010  -4.9909  -4.8964  -4.8248
    -4.8058  -4.7739  -4.7106  -4.6665  -4.5181  -4.4864  -4.3082  -4.2422
    -4.2376  -4.2302  -4.1370  -4.0447  -3.9832  -3.9527  -3.8646  -3.8519
    -3.8221  -3.8099  -3.6333  -3.6126  -3.5001  -3.3721  -3.3408  -3.3046
    -3.2474  -3.1931  -3.0808  -2.9675  -2.8595  -2.8194  -2.8080  -2.7203
    -2.6143  -2.6102  -2.5667  -2.5051  -2.4922  -2.4557  -2.4101  -2.3988
    -2.3860  -2.3793  -2.3641  -2.3019  -2.2673  -2.1716  -2.1486  -2.0403
    -2.0197  -1.9951  -1.9525  -1.9406  -1.9030  -1.8748  -1.8623  -1.6982
    -1.6466  -1.6364  -1.5970  -1.5737  -1.5572  -1.5295  -1.4409  -1.3228
    -1.2115  -1.2053  -1.1808  -1.1651  -1.1265  -1.0807  -1.0726  -1.0074
    -0.9744  -0.9535  -0.9180  -0.8796  -0.8749  -0.8011  -0.6303  -0.6067
    -0.5927  -0.5882  -0.5849  -0.5602  -0.5365  -0.4416  -0.3882  -0.3095
    -0.1678  -0.1349  -0.0627  -0.0367  -0.0296  -0.0076   0.0133   0.0619
     0.1462   0.2067   0.3187   0.3863   0.4013   0.6028   0.6348   0.7144
     0.7326   0.8293   0.8387   0.8817   0.9577   0.9658   1.0115   1.0535
     1.2632   1.2684   1.3768   1.4913   1.5285   1.7192   1.7649   1.8083
     1.9244   2.1656   2.2376   2.2469   2.2990   2.3473   2.3859   2.4155
     2.4251   2.4515

     occupation numbers 
     1.0000   1.0000   1.0000   1.0000   1.0000   1.0000   1.0000   1.0000
     1.0000   1.0000   1.0000   1.0000   1.0000   1.0000   1.0000   1.0000
     1.0000   1.0000   1.0000   1.0000   1.0000   1.0000   1.0000   1.0000
     1.0000   1.0000   1.0000   1.0000   1.0000   1.0000   1.0000   1.0000
     1.0000   1.0000   1.0000   1.0000   1.0000   1.0000   1.0000   1.0000
     1.0000   1.0000   1.0000   1.0000   1.0000   1.0000   1.0000   1.0000
     1.0000   1.0000   1.0000   1.0000   1.0000   1.0000   1.0000   1.0000
     1.0000   1.0000   1.0000   1.0000   1.0000   1.0000   1.0000   1.0000
     1.0000   1.0000   1.0000   1.0000   1.0000   1.0000   1.0000   1.0000
     1.0000   1.0000   1.0000   1.0000   1.0000   1.0000   1.0000   1.0000
     1.0000   1.0000   1.0000   1.0000   1.0000   1.0000   1.0000   1.0000
     1.0000   1.0000   1.0000   1.0000   1.0000   1.0000   1.0000   1.0000
     1.0000   1.0000   1.0000   1.0000   1.0000   1.0000   1.0000   1.0000
     1.0000   1.0000   1.0000   1.0000   1.0000   1.0000   1.0000   1.0000
     1.0000   1.0000   1.0000   1.0000   1.0000   1.0000   1.0000   1.0000
     1.0000   1.0000   1.0000   1.0000   1.0000   1.0000   1.0000   1.0000
     1.0000   1.0000   1.0000   1.0000   1.0000   1.0000   1.0000   1.0000
     1.0000   1.0000   1.0000   1.0000   1.0000   1.0000   1.0000   1.0000
     1.0000   1.0000   1.0000   1.0000   1.0000   1.0000   1.0000   1.0000
     1.0000   1.0000   1.0000   1.0000   1.0000   1.0000   1.0000   1.0000
     1.0000   1.0000   1.0000   1.0000   1.0000   1.0000   1.0000   1.0000
     1.0000   1.0000   1.0000   1.0000   1.0000   1.0000   1.0000   1.0000
     1.0000   1.0000   1.0000   1.0000   1.0000   1.0000   1.0000   1.0000
     1.0000   1.0000   1.0000   1.0000   1.0000   1.0000   1.0000   1.0000
     1.0000   1.0000   1.0000   1.0000   1.0000   1.0000   1.0000   1.0000
     1.0000   1.0000   1.0000   1.0000   1.0000   1.0000   1.0000   0.9993
     0.6015   0.3350   0.0269   0.0068   0.0045   0.0011   0.0002   0.0000
     0.0000   0.0000   0.0000   0.0000   0.0000   0.0000   0.0000   0.0000
     0.0000   0.0000   0.0000   0.0000   0.0000   0.0000   0.0000   0.0000
     0.0000   0.0000   0.0000   0.0000   0.0000   0.0000   0.0000   0.0000
     0.0000   0.0000   0.0000   0.0000   0.0000   0.0000   0.0000   0.0000
     0.0000   0.0000

          k = 0.2621-0.4856 0.0000 (116996 PWs)   bands (ev):

   -73.6294 -73.6281 -73.6273 -73.6215 -73.6207 -73.6205 -73.6173 -73.6098
   -69.8773 -69.8714 -69.8707 -69.8652 -69.8581 -69.8580 -69.8536 -69.8422
   -45.4922 -45.4898 -45.4889 -45.4857 -45.4833 -45.4800 -45.4765 -45.4740
   -45.1817 -45.1782 -45.1768 -45.1753 -45.1736 -45.1702 -45.1657 -45.1634
   -44.7559 -44.7529 -44.7520 -44.7495 -44.7456 -44.7429 -44.7394 -44.7366
   -41.4469 -41.4422 -41.4421 -41.4368 -41.4304 -41.4297 -41.4241 -41.4139
   -41.1877 -41.1817 -41.1803 -41.1752 -41.1692 -41.1691 -41.1615 -41.1537
   -40.7531 -40.7474 -40.7464 -40.7343 -40.7323 -40.7271 -40.7221 -40.7125
   -13.1376 -13.1291 -13.0294 -13.0238 -12.9449 -12.9353 -12.8476 -12.8408
   -12.5395 -12.5284 -12.4232 -12.4154 -12.2730 -12.2608 -12.1529 -12.1443
   -11.9925 -11.9877 -11.9123 -11.9107 -11.7550 -11.7492 -11.6809 -11.6783
   -11.4471 -11.4391 -11.3637 -11.3602 -11.1539 -11.1449 -11.0672 -11.0627
    -5.6942  -5.6914  -5.6135  -5.6114  -5.6070  -5.6044  -5.5166  -5.5148
    -5.4392  -5.4284  -5.3213  -5.3116  -5.1393  -5.1337  -5.0421  -5.0348
    -4.9820  -4.9798  -4.9638  -4.9571  -4.9097  -4.9077  -4.9055  -4.9015
    -4.4359  -4.4254  -4.3262  -4.3222  -4.3155  -4.3103  -4.2919  -4.2823
    -4.1364  -4.1293  -4.0797  -4.0726  -3.8313  -3.8287  -3.7493  -3.7466
    -3.7404  -3.7366  -3.6990  -3.6921  -3.6487  -3.6407  -3.6293  -3.6215
    -3.0372  -3.0223  -2.9934  -2.9851  -2.9627  -2.9568  -2.9154  -2.9046
    -2.8980  -2.8930  -2.8565  -2.8469  -2.7920  -2.7877  -2.7328  -2.7235
    -2.5687  -2.5592  -2.4730  -2.4658  -2.3913  -2.3802  -2.3680  -2.3549
    -2.0792  -2.0701  -2.0173  -2.0042  -1.8035  -1.7986  -1.7672  -1.7616
    -1.7078  -1.7018  -1.6021  -1.5937  -1.3975  -1.3864  -1.3332  -1.3263
    -1.1682  -1.1578  -1.1191  -1.1162  -1.0931  -1.0888  -1.0740  -1.0684
    -1.0569  -1.0503  -1.0470  -1.0431  -0.7748  -0.7605  -0.6933  -0.6869
    -0.6498  -0.6481  -0.6379  -0.6357  -0.5644  -0.5599  -0.4548  -0.4520
    -0.1723  -0.1717  -0.0679  -0.0667   0.1122   0.1196   0.1787   0.1879
     0.2103   0.2155   0.2637   0.2785   0.3300   0.3338   0.4016   0.4119
     0.6203   0.6254   0.8574   0.8589   0.8862   0.8931   1.0053   1.0075
     1.2795   1.2842   1.4315   1.4379   1.6554   1.6633   1.7585   1.7687
     2.2754   2.2797   2.2958   2.3092   2.3949   2.4035   2.5130   2.5132
     2.5607   2.5706

     occupation numbers 
     1.0000   1.0000   1.0000   1.0000   1.0000   1.0000   1.0000   1.0000
     1.0000   1.0000   1.0000   1.0000   1.0000   1.0000   1.0000   1.0000
     1.0000   1.0000   1.0000   1.0000   1.0000   1.0000   1.0000   1.0000
     1.0000   1.0000   1.0000   1.0000   1.0000   1.0000   1.0000   1.0000
     1.0000   1.0000   1.0000   1.0000   1.0000   1.0000   1.0000   1.0000
     1.0000   1.0000   1.0000   1.0000   1.0000   1.0000   1.0000   1.0000
     1.0000   1.0000   1.0000   1.0000   1.0000   1.0000   1.0000   1.0000
     1.0000   1.0000   1.0000   1.0000   1.0000   1.0000   1.0000   1.0000
     1.0000   1.0000   1.0000   1.0000   1.0000   1.0000   1.0000   1.0000
     1.0000   1.0000   1.0000   1.0000   1.0000   1.0000   1.0000   1.0000
     1.0000   1.0000   1.0000   1.0000   1.0000   1.0000   1.0000   1.0000
     1.0000   1.0000   1.0000   1.0000   1.0000   1.0000   1.0000   1.0000
     1.0000   1.0000   1.0000   1.0000   1.0000   1.0000   1.0000   1.0000
     1.0000   1.0000   1.0000   1.0000   1.0000   1.0000   1.0000   1.0000
     1.0000   1.0000   1.0000   1.0000   1.0000   1.0000   1.0000   1.0000
     1.0000   1.0000   1.0000   1.0000   1.0000   1.0000   1.0000   1.0000
     1.0000   1.0000   1.0000   1.0000   1.0000   1.0000   1.0000   1.0000
     1.0000   1.0000   1.0000   1.0000   1.0000   1.0000   1.0000   1.0000
     1.0000   1.0000   1.0000   1.0000   1.0000   1.0000   1.0000   1.0000
     1.0000   1.0000   1.0000   1.0000   1.0000   1.0000   1.0000   1.0000
     1.0000   1.0000   1.0000   1.0000   1.0000   1.0000   1.0000   1.0000
     1.0000   1.0000   1.0000   1.0000   1.0000   1.0000   1.0000   1.0000
     1.0000   1.0000   1.0000   1.0000   1.0000   1.0000   1.0000   1.0000
     1.0000   1.0000   1.0000   1.0000   1.0000   1.0000   1.0000   1.0000
     1.0000   1.0000   1.0000   1.0000   1.0000   1.0000   1.0000   1.0000
     1.0000   1.0000   1.0000   1.0000   1.0000   1.0000   1.0000   1.0000
     0.6373   0.6326   0.0344   0.0326   0.0000   0.0000   0.0000   0.0000
     0.0000   0.0000   0.0000   0.0000   0.0000   0.0000   0.0000   0.0000
     0.0000   0.0000   0.0000   0.0000   0.0000   0.0000   0.0000   0.0000
     0.0000   0.0000   0.0000   0.0000   0.0000   0.0000   0.0000   0.0000
     0.0000   0.0000   0.0000   0.0000   0.0000   0.0000   0.0000   0.0000
     0.0000   0.0000

          k = 0.2622-0.2427 0.0000 (117069 PWs)   bands (ev):

   -73.6294 -73.6280 -73.6272 -73.6216 -73.6208 -73.6204 -73.6173 -73.6098
   -69.8773 -69.8714 -69.8706 -69.8652 -69.8582 -69.8578 -69.8535 -69.8422
   -45.4922 -45.4900 -45.4887 -45.4858 -45.4833 -45.4802 -45.4763 -45.4739
   -45.1817 -45.1782 -45.1768 -45.1753 -45.1736 -45.1702 -45.1657 -45.1634
   -44.7559 -44.7530 -44.7518 -44.7495 -44.7456 -44.7432 -44.7391 -44.7365
   -41.4469 -41.4422 -41.4422 -41.4368 -41.4307 -41.4294 -41.4241 -41.4139
   -41.1877 -41.1817 -41.1803 -41.1752 -41.1694 -41.1689 -41.1615 -41.1537
   -40.7531 -40.7474 -40.7463 -40.7342 -40.7324 -40.7271 -40.7221 -40.7124
   -13.4433 -13.3235 -13.2717 -13.1655 -12.8194 -12.7567 -12.6924 -12.6742
   -12.5594 -12.5307 -12.4636 -12.4194 -12.2105 -12.1897 -12.1269 -12.0983
   -11.9824 -11.9244 -11.8948 -11.8412 -11.7582 -11.7111 -11.6217 -11.5199
   -11.4976 -11.4524 -11.3343 -11.2488 -11.2286 -11.2018 -10.9479 -10.8988
    -5.8633  -5.7901  -5.7884  -5.7465  -5.7161  -5.6900  -5.6643  -5.6572
    -5.6046  -5.5322  -5.3457  -5.2767  -5.2700  -5.2611  -5.1890  -5.1206
    -5.0716  -5.0607  -5.0463  -5.0424  -4.9997  -4.9889  -4.8925  -4.8306
    -4.8053  -4.7740  -4.7047  -4.6666  -4.5185  -4.4855  -4.3068  -4.2418
    -4.2362  -4.2310  -4.1372  -4.0368  -3.9843  -3.9530  -3.8631  -3.8509
    -3.8279  -3.8143  -3.6245  -3.6133  -3.5000  -3.3722  -3.3403  -3.2947
    -3.2530  -3.1852  -3.0779  -2.9628  -2.8623  -2.8183  -2.8076  -2.7221
    -2.6153  -2.6139  -2.5703  -2.4944  -2.4890  -2.4656  -2.4129  -2.3927
    -2.3872  -2.3790  -2.3644  -2.3151  -2.2622  -2.1750  -2.1561  -2.0427
    -2.0273  -1.9962  -1.9478  -1.9389  -1.9016  -1.8753  -1.8709  -1.7010
    -1.6375  -1.6344  -1.5993  -1.5740  -1.5589  -1.5271  -1.4403  -1.3209
    -1.2118  -1.2069  -1.1809  -1.1653  -1.1272  -1.0807  -1.0734  -1.0055
    -0.9750  -0.9526  -0.9181  -0.8813  -0.8717  -0.8073  -0.6312  -0.6064
    -0.5918  -0.5896  -0.5842  -0.5591  -0.5297  -0.4443  -0.3997  -0.3001
    -0.1674  -0.1352  -0.0626  -0.0404  -0.0309  -0.0065   0.0227   0.0520
     0.1448   0.2078   0.3188   0.3837   0.4011   0.6021   0.6365   0.7132
     0.7310   0.8311   0.8391   0.8848   0.9601   0.9713   1.0085   1.0526
     1.2622   1.2694   1.3758   1.4906   1.5228   1.7192   1.7666   1.8083
     1.9245   2.1661   2.2367   2.2374   2.3425   2.3460   2.3788   2.4113
     2.4157   2.4265

     occupation numbers 
     1.0000   1.0000   1.0000   1.0000   1.0000   1.0000   1.0000   1.0000
     1.0000   1.0000   1.0000   1.0000   1.0000   1.0000   1.0000   1.0000
     1.0000   1.0000   1.0000   1.0000   1.0000   1.0000   1.0000   1.0000
     1.0000   1.0000   1.0000   1.0000   1.0000   1.0000   1.0000   1.0000
     1.0000   1.0000   1.0000   1.0000   1.0000   1.0000   1.0000   1.0000
     1.0000   1.0000   1.0000   1.0000   1.0000   1.0000   1.0000   1.0000
     1.0000   1.0000   1.0000   1.0000   1.0000   1.0000   1.0000   1.0000
     1.0000   1.0000   1.0000   1.0000   1.0000   1.0000   1.0000   1.0000
     1.0000   1.0000   1.0000   1.0000   1.0000   1.0000   1.0000   1.0000
     1.0000   1.0000   1.0000   1.0000   1.0000   1.0000   1.0000   1.0000
     1.0000   1.0000   1.0000   1.0000   1.0000   1.0000   1.0000   1.0000
     1.0000   1.0000   1.0000   1.0000   1.0000   1.0000   1.0000   1.0000
     1.0000   1.0000   1.0000   1.0000   1.0000   1.0000   1.0000   1.0000
     1.0000   1.0000   1.0000   1.0000   1.0000   1.0000   1.0000   1.0000
     1.0000   1.0000   1.0000   1.0000   1.0000   1.0000   1.0000   1.0000
     1.0000   1.0000   1.0000   1.0000   1.0000   1.0000   1.0000   1.0000
     1.0000   1.0000   1.0000   1.0000   1.0000   1.0000   1.0000   1.0000
     1.0000   1.0000   1.0000   1.0000   1.0000   1.0000   1.0000   1.0000
     1.0000   1.0000   1.0000   1.0000   1.0000   1.0000   1.0000   1.0000
     1.0000   1.0000   1.0000   1.0000   1.0000   1.0000   1.0000   1.0000
     1.0000   1.0000   1.0000   1.0000   1.0000   1.0000   1.0000   1.0000
     1.0000   1.0000   1.0000   1.0000   1.0000   1.0000   1.0000   1.0000
     1.0000   1.0000   1.0000   1.0000   1.0000   1.0000   1.0000   1.0000
     1.0000   1.0000   1.0000   1.0000   1.0000   1.0000   1.0000   1.0000
     1.0000   1.0000   1.0000   1.0000   1.0000   1.0000   1.0000   1.0000
     1.0000   1.0000   1.0000   1.0000   1.0000   1.0000   1.0000   0.9987
     0.5987   0.3370   0.0268   0.0084   0.0048   0.0010   0.0001   0.0000
     0.0000   0.0000   0.0000   0.0000   0.0000   0.0000   0.0000   0.0000
     0.0000   0.0000   0.0000   0.0000   0.0000   0.0000   0.0000   0.0000
     0.0000   0.0000   0.0000   0.0000   0.0000   0.0000   0.0000   0.0000
     0.0000   0.0000   0.0000   0.0000   0.0000   0.0000   0.0000   0.0000
     0.0000   0.0000

          k =-0.5246-0.0001 0.0000 (116990 PWs)   bands (ev):

   -73.6300 -73.6287 -73.6278 -73.6224 -73.6214 -73.6212 -73.6180 -73.6106
   -69.8779 -69.8721 -69.8713 -69.8660 -69.8588 -69.8586 -69.8543 -69.8430
   -45.4908 -45.4889 -45.4867 -45.4851 -45.4837 -45.4815 -45.4770 -45.4745
   -45.1810 -45.1777 -45.1760 -45.1748 -45.1740 -45.1707 -45.1659 -45.1636
   -44.7539 -44.7521 -44.7496 -44.7484 -44.7468 -44.7446 -44.7401 -44.7378
   -41.4468 -41.4420 -41.4420 -41.4366 -41.4307 -41.4291 -41.4239 -41.4137
   -41.1872 -41.1811 -41.1799 -41.1753 -41.1694 -41.1685 -41.1614 -41.1538
   -40.7487 -40.7440 -40.7426 -40.7364 -40.7315 -40.7296 -40.7252 -40.7151
   -13.0362 -13.0307 -12.9155 -12.9152 -12.8561 -12.8511 -12.7489 -12.7480
   -12.4138 -12.4112 -12.2833 -12.2804 -12.1461 -12.1437 -12.1353 -12.1298
   -12.0951 -12.0944 -12.0118 -12.0091 -11.8798 -11.8737 -11.8410 -11.8396
   -11.6295 -11.6280 -11.5930 -11.5916 -11.3408 -11.3390 -11.3022 -11.3006
    -5.7186  -5.7086  -5.6380  -5.6286  -5.5262  -5.5185  -5.4421  -5.4362
    -5.3902  -5.3864  -5.2813  -5.2777  -4.8857  -4.8835  -4.8200  -4.8155
    -4.7930  -4.7904  -4.7180  -4.7145  -4.7026  -4.7002  -4.6971  -4.6953
    -4.0267  -4.0245  -4.0188  -4.0175  -3.9276  -3.9245  -3.8811  -3.8788
    -3.8551  -3.8528  -3.8293  -3.8260  -3.7830  -3.7790  -3.7084  -3.7061
    -3.4617  -3.4570  -3.3591  -3.3567  -3.3063  -3.3015  -3.2912  -3.2863
    -3.2461  -3.2362  -3.1947  -3.1875  -3.1843  -3.1791  -3.1277  -3.1179
    -2.9139  -2.9101  -2.8047  -2.7945  -2.7781  -2.7666  -2.6777  -2.6691
    -2.5506  -2.5501  -2.5274  -2.5252  -2.3597  -2.3576  -2.2578  -2.2532
    -2.2141  -2.2122  -2.2025  -2.2010  -2.1914  -2.1898  -2.0459  -2.0429
    -1.9940  -1.9859  -1.9821  -1.9789  -1.8779  -1.8673  -1.7757  -1.7715
    -1.7168  -1.7145  -1.6251  -1.6136  -1.5281  -1.5202  -1.4498  -1.4398
    -1.0826  -1.0817  -1.0254  -1.0239  -0.9046  -0.9032  -0.8413  -0.8384
    -0.7340  -0.7259  -0.7025  -0.6956  -0.5688  -0.5626  -0.4724  -0.4659
    -0.2984  -0.2946  -0.2411  -0.2372  -0.1942  -0.1901  -0.1508  -0.1480
    -0.0406  -0.0382   0.0974   0.0999   0.1198   0.1234   0.2523   0.2590
     0.8764   0.8802   1.0033   1.0054   1.0622   1.0734   1.1944   1.2094
     1.6138   1.6167   1.8540   1.8562   1.8670   1.8698   1.9217   1.9225
     1.9346   1.9375   2.1353   2.2038   2.2237   2.2283   2.2353   2.2407
     2.2425   2.3350

     occupation numbers 
     1.0000   1.0000   1.0000   1.0000   1.0000   1.0000   1.0000   1.0000
     1.0000   1.0000   1.0000   1.0000   1.0000   1.0000   1.0000   1.0000
     1.0000   1.0000   1.0000   1.0000   1.0000   1.0000   1.0000   1.0000
     1.0000   1.0000   1.0000   1.0000   1.0000   1.0000   1.0000   1.0000
     1.0000   1.0000   1.0000   1.0000   1.0000   1.0000   1.0000   1.0000
     1.0000   1.0000   1.0000   1.0000   1.0000   1.0000   1.0000   1.0000
     1.0000   1.0000   1.0000   1.0000   1.0000   1.0000   1.0000   1.0000
     1.0000   1.0000   1.0000   1.0000   1.0000   1.0000   1.0000   1.0000
     1.0000   1.0000   1.0000   1.0000   1.0000   1.0000   1.0000   1.0000
     1.0000   1.0000   1.0000   1.0000   1.0000   1.0000   1.0000   1.0000
     1.0000   1.0000   1.0000   1.0000   1.0000   1.0000   1.0000   1.0000
     1.0000   1.0000   1.0000   1.0000   1.0000   1.0000   1.0000   1.0000
     1.0000   1.0000   1.0000   1.0000   1.0000   1.0000   1.0000   1.0000
     1.0000   1.0000   1.0000   1.0000   1.0000   1.0000   1.0000   1.0000
     1.0000   1.0000   1.0000   1.0000   1.0000   1.0000   1.0000   1.0000
     1.0000   1.0000   1.0000   1.0000   1.0000   1.0000   1.0000   1.0000
     1.0000   1.0000   1.0000   1.0000   1.0000   1.0000   1.0000   1.0000
     1.0000   1.0000   1.0000   1.0000   1.0000   1.0000   1.0000   1.0000
     1.0000   1.0000   1.0000   1.0000   1.0000   1.0000   1.0000   1.0000
     1.0000   1.0000   1.0000   1.0000   1.0000   1.0000   1.0000   1.0000
     1.0000   1.0000   1.0000   1.0000   1.0000   1.0000   1.0000   1.0000
     1.0000   1.0000   1.0000   1.0000   1.0000   1.0000   1.0000   1.0000
     1.0000   1.0000   1.0000   1.0000   1.0000   1.0000   1.0000   1.0000
     1.0000   1.0000   1.0000   1.0000   1.0000   1.0000   1.0000   1.0000
     1.0000   1.0000   1.0000   1.0000   1.0000   1.0000   1.0000   1.0000
     1.0000   1.0000   1.0000   1.0000   1.0000   1.0000   1.0000   1.0000
     0.9985   0.9981   0.9627   0.9555   0.7899   0.7649   0.4615   0.4387
     0.0085   0.0074   0.0000   0.0000   0.0000   0.0000   0.0000   0.0000
     0.0000   0.0000   0.0000   0.0000   0.0000   0.0000   0.0000   0.0000
     0.0000   0.0000   0.0000   0.0000   0.0000   0.0000   0.0000   0.0000
     0.0000   0.0000   0.0000   0.0000   0.0000   0.0000   0.0000   0.0000
     0.0000   0.0000

          k =-0.5245 0.2427 0.0000 (117058 PWs)   bands (ev):

   -73.6300 -73.6287 -73.6278 -73.6224 -73.6214 -73.6213 -73.6181 -73.6106
   -69.8780 -69.8721 -69.8713 -69.8661 -69.8588 -69.8587 -69.8543 -69.8430
   -45.4907 -45.4888 -45.4868 -45.4849 -45.4839 -45.4815 -45.4771 -45.4746
   -45.1810 -45.1777 -45.1760 -45.1748 -45.1740 -45.1707 -45.1659 -45.1636
   -44.7538 -44.7519 -44.7498 -44.7482 -44.7471 -44.7447 -44.7403 -44.7379
   -41.4468 -41.4420 -41.4420 -41.4367 -41.4305 -41.4293 -41.4240 -41.4138
   -41.1872 -41.1811 -41.1799 -41.1753 -41.1694 -41.1686 -41.1615 -41.1538
   -40.7486 -40.7440 -40.7427 -40.7365 -40.7313 -40.7298 -40.7253 -40.7152
   -12.9290 -12.9235 -12.8126 -12.8120 -12.7416 -12.7366 -12.6377 -12.6366
   -12.3270 -12.3185 -12.2998 -12.2890 -12.2399 -12.2325 -12.1891 -12.1811
   -12.0737 -12.0645 -12.0453 -12.0336 -12.0014 -11.9974 -11.9158 -11.9103
   -11.7707 -11.7679 -11.7010 -11.6995 -11.4864 -11.4835 -11.4137 -11.4119
    -5.3777  -5.3729  -5.2772  -5.2710  -5.2645  -5.2609  -5.1907  -5.1828
    -5.1639  -5.1600  -5.0917  -5.0896  -4.7994  -4.7973  -4.6457  -4.6419
    -4.6198  -4.6192  -4.6167  -4.6105  -4.5188  -4.5105  -4.4678  -4.4583
    -4.1099  -4.1082  -4.0772  -4.0735  -3.9132  -3.9095  -3.8724  -3.8690
    -3.7324  -3.7269  -3.7125  -3.7089  -3.6737  -3.6714  -3.6423  -3.6359
    -3.6049  -3.5982  -3.5970  -3.5940  -3.5283  -3.5252  -3.5117  -3.5095
    -3.1796  -3.1758  -3.1013  -3.0951  -3.0885  -3.0841  -3.0736  -3.0711
    -3.0416  -3.0357  -2.9807  -2.9774  -2.9538  -2.9403  -2.9273  -2.9192
    -2.7588  -2.7551  -2.6076  -2.6046  -2.3999  -2.3902  -2.3586  -2.3554
    -2.3233  -2.3175  -2.3137  -2.3101  -2.2793  -2.2621  -2.1941  -2.1853
    -2.1354  -2.1280  -2.1189  -2.1158  -2.0746  -2.0579  -1.9427  -1.9388
    -1.9172  -1.9040  -1.8661  -1.8598  -1.8094  -1.7941  -1.7502  -1.7400
    -1.1348  -1.1313  -1.0999  -1.0969  -0.9521  -0.9494  -0.8929  -0.8912
    -0.6575  -0.6521  -0.6421  -0.6342  -0.5653  -0.5626  -0.4993  -0.4965
    -0.3246  -0.3225  -0.2081  -0.2073  -0.1201  -0.1074  -0.0894  -0.0692
    -0.0572  -0.0515  -0.0132   0.0074   0.0897   0.0923   0.1267   0.1373
     0.7181   0.7202   0.8083   0.8232   0.8935   0.9102   1.0048   1.0086
     1.7134   1.7211   1.7426   1.7474   1.7494   1.7546   1.8697   1.8723
     2.2950   2.2990   2.4781   2.4825   2.4989   2.5036   2.5202   2.5503
     2.6306   2.6322

     occupation numbers 
     1.0000   1.0000   1.0000   1.0000   1.0000   1.0000   1.0000   1.0000
     1.0000   1.0000   1.0000   1.0000   1.0000   1.0000   1.0000   1.0000
     1.0000   1.0000   1.0000   1.0000   1.0000   1.0000   1.0000   1.0000
     1.0000   1.0000   1.0000   1.0000   1.0000   1.0000   1.0000   1.0000
     1.0000   1.0000   1.0000   1.0000   1.0000   1.0000   1.0000   1.0000
     1.0000   1.0000   1.0000   1.0000   1.0000   1.0000   1.0000   1.0000
     1.0000   1.0000   1.0000   1.0000   1.0000   1.0000   1.0000   1.0000
     1.0000   1.0000   1.0000   1.0000   1.0000   1.0000   1.0000   1.0000
     1.0000   1.0000   1.0000   1.0000   1.0000   1.0000   1.0000   1.0000
     1.0000   1.0000   1.0000   1.0000   1.0000   1.0000   1.0000   1.0000
     1.0000   1.0000   1.0000   1.0000   1.0000   1.0000   1.0000   1.0000
     1.0000   1.0000   1.0000   1.0000   1.0000   1.0000   1.0000   1.0000
     1.0000   1.0000   1.0000   1.0000   1.0000   1.0000   1.0000   1.0000
     1.0000   1.0000   1.0000   1.0000   1.0000   1.0000   1.0000   1.0000
     1.0000   1.0000   1.0000   1.0000   1.0000   1.0000   1.0000   1.0000
     1.0000   1.0000   1.0000   1.0000   1.0000   1.0000   1.0000   1.0000
     1.0000   1.0000   1.0000   1.0000   1.0000   1.0000   1.0000   1.0000
     1.0000   1.0000   1.0000   1.0000   1.0000   1.0000   1.0000   1.0000
     1.0000   1.0000   1.0000   1.0000   1.0000   1.0000   1.0000   1.0000
     1.0000   1.0000   1.0000   1.0000   1.0000   1.0000   1.0000   1.0000
     1.0000   1.0000   1.0000   1.0000   1.0000   1.0000   1.0000   1.0000
     1.0000   1.0000   1.0000   1.0000   1.0000   1.0000   1.0000   1.0000
     1.0000   1.0000   1.0000   1.0000   1.0000   1.0000   1.0000   1.0000
     1.0000   1.0000   1.0000   1.0000   1.0000   1.0000   1.0000   1.0000
     1.0000   1.0000   1.0000   1.0000   1.0000   1.0000   1.0000   1.0000
     1.0000   1.0000   1.0000   1.0000   1.0000   1.0000   1.0000   1.0000
     0.9998   0.9997   0.8633   0.8595   0.2312   0.1590   0.0849   0.0365
     0.0206   0.0154   0.0016   0.0004   0.0000   0.0000   0.0000   0.0000
     0.0000   0.0000   0.0000   0.0000   0.0000   0.0000   0.0000   0.0000
     0.0000   0.0000   0.0000   0.0000   0.0000   0.0000   0.0000   0.0000
     0.0000   0.0000   0.0000   0.0000   0.0000   0.0000   0.0000   0.0000
     0.0000   0.0000

          k =-0.5247-0.4857 0.0000 (116938 PWs)   bands (ev):

   -73.6301 -73.6287 -73.6279 -73.6224 -73.6214 -73.6214 -73.6181 -73.6106
   -69.8780 -69.8721 -69.8713 -69.8661 -69.8588 -69.8587 -69.8544 -69.8430
   -45.4907 -45.4886 -45.4869 -45.4846 -45.4843 -45.4815 -45.4772 -45.4746
   -45.1810 -45.1777 -45.1760 -45.1748 -45.1740 -45.1707 -45.1659 -45.1636
   -44.7537 -44.7517 -44.7499 -44.7478 -44.7475 -44.7446 -44.7404 -44.7379
   -41.4467 -41.4420 -41.4419 -41.4367 -41.4302 -41.4295 -41.4240 -41.4138
   -41.1872 -41.1811 -41.1799 -41.1753 -41.1693 -41.1686 -41.1615 -41.1538
   -40.7485 -40.7439 -40.7427 -40.7365 -40.7310 -40.7301 -40.7254 -40.7152
   -12.6499 -12.6443 -12.6377 -12.6326 -12.5461 -12.5457 -12.5371 -12.5362
   -12.4403 -12.4359 -12.4297 -12.4232 -12.3478 -12.3454 -12.3371 -12.3361
   -12.0711 -12.0650 -12.0583 -12.0495 -11.9616 -11.9584 -11.9506 -11.9499
   -11.7951 -11.7890 -11.7814 -11.7736 -11.6819 -11.6789 -11.6708 -11.6692
    -4.9540  -4.9507  -4.9423  -4.9371  -4.8678  -4.8642  -4.8568  -4.8524
    -4.7585  -4.7575  -4.7534  -4.7513  -4.5591  -4.5550  -4.5499  -4.5464
    -4.4133  -4.4123  -4.4100  -4.4067  -4.3031  -4.3017  -4.2988  -4.2967
    -4.2331  -4.2325  -4.2288  -4.2266  -4.1874  -4.1859  -4.1834  -4.1813
    -3.6539  -3.6508  -3.6465  -3.6430  -3.6149  -3.6126  -3.6078  -3.6029
    -3.5810  -3.5808  -3.5763  -3.5717  -3.5378  -3.5342  -3.5338  -3.5286
    -3.1338  -3.1267  -3.1205  -3.1162  -3.0655  -3.0594  -3.0565  -3.0510
    -3.0392  -3.0380  -3.0307  -3.0298  -2.9514  -2.9468  -2.9397  -2.9356
    -2.8159  -2.8111  -2.8059  -2.8004  -2.7174  -2.7131  -2.6995  -2.6938
    -2.6489  -2.6440  -2.6283  -2.6198  -2.5087  -2.5045  -2.4927  -2.4880
    -2.4255  -2.4234  -2.4137  -2.4118  -2.3491  -2.3426  -2.3355  -2.3295
    -1.9637  -1.9601  -1.9547  -1.9528  -1.9230  -1.9192  -1.9113  -1.9083
    -1.0557  -1.0539  -1.0517  -1.0470  -1.0072  -1.0042  -1.0020  -0.9977
    -0.6018  -0.6002  -0.5971  -0.5934  -0.5668  -0.5656  -0.5618  -0.5598
    -0.2989  -0.2966  -0.2941  -0.2904  -0.1745  -0.1717  -0.1684  -0.1659
    -0.0370  -0.0343  -0.0319  -0.0284   0.1118   0.1134   0.1147   0.1241
     0.5625   0.5683   0.5698   0.5741   0.8328   0.8347   0.8363   0.8390
     1.8060   1.8104   1.8146   1.8185   1.8816   1.8855   1.8913   1.8952
     2.4182   2.4242   2.4262   2.4264   2.5974   2.6029   2.6082   2.6183
     2.6569   2.6625

     occupation numbers 
     1.0000   1.0000   1.0000   1.0000   1.0000   1.0000   1.0000   1.0000
     1.0000   1.0000   1.0000   1.0000   1.0000   1.0000   1.0000   1.0000
     1.0000   1.0000   1.0000   1.0000   1.0000   1.0000   1.0000   1.0000
     1.0000   1.0000   1.0000   1.0000   1.0000   1.0000   1.0000   1.0000
     1.0000   1.0000   1.0000   1.0000   1.0000   1.0000   1.0000   1.0000
     1.0000   1.0000   1.0000   1.0000   1.0000   1.0000   1.0000   1.0000
     1.0000   1.0000   1.0000   1.0000   1.0000   1.0000   1.0000   1.0000
     1.0000   1.0000   1.0000   1.0000   1.0000   1.0000   1.0000   1.0000
[...]
    -1.1821  -1.1788  -1.1563  -1.1221  -1.0879  -1.0141  -0.9792  -0.9614
    -0.9540  -0.9072  -0.8982  -0.8603  -0.8407  -0.7621  -0.6367  -0.6268
    -0.5867  -0.5778  -0.5536  -0.5475  -0.4218  -0.2922  -0.2892  -0.2557
    -0.1940  -0.1892  -0.1298  -0.1038  -0.0152   0.0290   0.0492   0.0809
     0.0900   0.1772   0.3237   0.5888   0.6463   0.7447   0.7999   0.8407
     0.8598   0.8942   0.9192   0.9286   0.9359   0.9674   1.0405   1.0669
     1.2274   1.2641   1.5331   1.6101   1.6250   1.6837   1.6852   1.7253
     1.8797   1.9394   1.9490   2.0517   2.1605   2.1608   2.2674   2.3309
     2.3769   2.5236

     occupation numbers 
     1.0000   1.0000   1.0000   1.0000   1.0000   1.0000   1.0000   1.0000
     1.0000   1.0000   1.0000   1.0000   1.0000   1.0000   1.0000   1.0000
     1.0000   1.0000   1.0000   1.0000   1.0000   1.0000   1.0000   1.0000
     1.0000   1.0000   1.0000   1.0000   1.0000   1.0000   1.0000   1.0000
     1.0000   1.0000   1.0000   1.0000   1.0000   1.0000   1.0000   1.0000
     1.0000   1.0000   1.0000   1.0000   1.0000   1.0000   1.0000   1.0000
     1.0000   1.0000   1.0000   1.0000   1.0000   1.0000   1.0000   1.0000
     1.0000   1.0000   1.0000   1.0000   1.0000   1.0000   1.0000   1.0000
     1.0000   1.0000   1.0000   1.0000   1.0000   1.0000   1.0000   1.0000
     1.0000   1.0000   1.0000   1.0000   1.0000   1.0000   1.0000   1.0000
     1.0000   1.0000   1.0000   1.0000   1.0000   1.0000   1.0000   1.0000
     1.0000   1.0000   1.0000   1.0000   1.0000   1.0000   1.0000   1.0000
     1.0000   1.0000   1.0000   1.0000   1.0000   1.0000   1.0000   1.0000
     1.0000   1.0000   1.0000   1.0000   1.0000   1.0000   1.0000   1.0000
     1.0000   1.0000   1.0000   1.0000   1.0000   1.0000   1.0000   1.0000
     1.0000   1.0000   1.0000   1.0000   1.0000   1.0000   1.0000   1.0000
     1.0000   1.0000   1.0000   1.0000   1.0000   1.0000   1.0000   1.0000
     1.0000   1.0000   1.0000   1.0000   1.0000   1.0000   1.0000   1.0000
     1.0000   1.0000   1.0000   1.0000   1.0000   1.0000   1.0000   1.0000
     1.0000   1.0000   1.0000   1.0000   1.0000   1.0000   1.0000   1.0000
     1.0000   1.0000   1.0000   1.0000   1.0000   1.0000   1.0000   1.0000
     1.0000   1.0000   1.0000   1.0000   1.0000   1.0000   1.0000   1.0000
     1.0000   1.0000   1.0000   1.0000   1.0000   1.0000   1.0000   1.0000
     1.0000   1.0000   1.0000   1.0000   1.0000   1.0000   1.0000   1.0000
     1.0000   1.0000   1.0000   1.0000   1.0000   1.0000   1.0000   1.0000
     1.0000   1.0000   1.0000   1.0000   1.0000   0.9978   0.9973   0.9815
     0.7891   0.7589   0.2972   0.1417   0.0018   0.0001   0.0000   0.0000
     0.0000   0.0000   0.0000   0.0000   0.0000   0.0000   0.0000   0.0000
     0.0000   0.0000   0.0000   0.0000   0.0000   0.0000   0.0000   0.0000
     0.0000   0.0000   0.0000   0.0000   0.0000   0.0000   0.0000   0.0000
     0.0000   0.0000   0.0000   0.0000   0.0000   0.0000   0.0000   0.0000
     0.0000   0.0000

          k =-0.2622 0.2427 0.0000 (117069 PWs)   bands (ev):

   -73.6294 -73.6280 -73.6272 -73.6216 -73.6208 -73.6204 -73.6173 -73.6098
   -69.8773 -69.8714 -69.8706 -69.8652 -69.8582 -69.8578 -69.8535 -69.8422
   -45.4924 -45.4897 -45.4885 -45.4859 -45.4831 -45.4805 -45.4765 -45.4737
   -45.1817 -45.1782 -45.1768 -45.1753 -45.1736 -45.1702 -45.1657 -45.1634
   -44.7556 -44.7534 -44.7520 -44.7493 -44.7460 -44.7428 -44.7389 -44.7367
   -41.4470 -41.4422 -41.4421 -41.4368 -41.4307 -41.4294 -41.4241 -41.4139
   -41.1879 -41.1816 -41.1804 -41.1751 -41.1694 -41.1689 -41.1614 -41.1538
   -40.7523 -40.7481 -40.7457 -40.7349 -40.7332 -40.7264 -40.7227 -40.7117
   -13.4433 -13.3235 -13.2717 -13.1656 -12.8194 -12.7566 -12.6924 -12.6742
   -12.5594 -12.5307 -12.4636 -12.4194 -12.2105 -12.1896 -12.1269 -12.0984
   -11.9825 -11.9245 -11.8946 -11.8413 -11.7588 -11.7106 -11.6217 -11.5199
   -11.4973 -11.4526 -11.3342 -11.2488 -11.2286 -11.2019 -10.9478 -10.8988
    -5.8621  -5.7953  -5.7886  -5.7478  -5.7109  -5.6859  -5.6644  -5.6578
    -5.6078  -5.5316  -5.3443  -5.2768  -5.2708  -5.2626  -5.1881  -5.1208
    -5.0719  -5.0603  -5.0461  -5.0382  -5.0023  -4.9894  -4.8959  -4.8272
    -4.8044  -4.7746  -4.7051  -4.6673  -4.5178  -4.4861  -4.3069  -4.2420
    -4.2361  -4.2310  -4.1313  -4.0400  -3.9903  -3.9531  -3.8600  -3.8511
    -3.8280  -3.8154  -3.6218  -3.6155  -3.5003  -3.3720  -3.3430  -3.2934
    -3.2522  -3.1851  -3.0836  -2.9584  -2.8582  -2.8180  -2.8071  -2.7246
    -2.6140  -2.6097  -2.5747  -2.4978  -2.4913  -2.4646  -2.4192  -2.3928
    -2.3870  -2.3769  -2.3542  -2.3196  -2.2585  -2.1750  -2.1583  -2.0450
    -2.0300  -1.9938  -1.9458  -1.9356  -1.9012  -1.8790  -1.8707  -1.7009
    -1.6377  -1.6341  -1.5896  -1.5734  -1.5582  -1.5391  -1.4410  -1.3201
    -1.2126  -1.2089  -1.1805  -1.1628  -1.1251  -1.0810  -1.0743  -1.0060
    -0.9716  -0.9544  -0.9220  -0.8776  -0.8729  -0.8059  -0.6296  -0.6046
    -0.5933  -0.5916  -0.5840  -0.5587  -0.5263  -0.4454  -0.3992  -0.3014
    -0.1678  -0.1347  -0.0627  -0.0439  -0.0305  -0.0065   0.0256   0.0516
     0.1463   0.2077   0.3196   0.3828   0.4009   0.6059   0.6338   0.7128
     0.7268   0.8310   0.8402   0.8734   0.9585   0.9704   1.0212   1.0537
     1.2621   1.2694   1.3755   1.4907   1.5221   1.7204   1.7672   1.8076
     1.9217   2.1650   2.2306   2.2392   2.2992   2.3464   2.3840   2.4167
     2.4253   2.5196

     occupation numbers 
     1.0000   1.0000   1.0000   1.0000   1.0000   1.0000   1.0000   1.0000
     1.0000   1.0000   1.0000   1.0000   1.0000   1.0000   1.0000   1.0000
     1.0000   1.0000   1.0000   1.0000   1.0000   1.0000   1.0000   1.0000
     1.0000   1.0000   1.0000   1.0000   1.0000   1.0000   1.0000   1.0000
     1.0000   1.0000   1.0000   1.0000   1.0000   1.0000   1.0000   1.0000
     1.0000   1.0000   1.0000   1.0000   1.0000   1.0000   1.0000   1.0000
     1.0000   1.0000   1.0000   1.0000   1.0000   1.0000   1.0000   1.0000
     1.0000   1.0000   1.0000   1.0000   1.0000   1.0000   1.0000   1.0000
     1.0000   1.0000   1.0000   1.0000   1.0000   1.0000   1.0000   1.0000
     1.0000   1.0000   1.0000   1.0000   1.0000   1.0000   1.0000   1.0000
     1.0000   1.0000   1.0000   1.0000   1.0000   1.0000   1.0000   1.0000
     1.0000   1.0000   1.0000   1.0000   1.0000   1.0000   1.0000   1.0000
     1.0000   1.0000   1.0000   1.0000   1.0000   1.0000   1.0000   1.0000
     1.0000   1.0000   1.0000   1.0000   1.0000   1.0000   1.0000   1.0000
     1.0000   1.0000   1.0000   1.0000   1.0000   1.0000   1.0000   1.0000
     1.0000   1.0000   1.0000   1.0000   1.0000   1.0000   1.0000   1.0000
     1.0000   1.0000   1.0000   1.0000   1.0000   1.0000   1.0000   1.0000
     1.0000   1.0000   1.0000   1.0000   1.0000   1.0000   1.0000   1.0000
     1.0000   1.0000   1.0000   1.0000   1.0000   1.0000   1.0000   1.0000
     1.0000   1.0000   1.0000   1.0000   1.0000   1.0000   1.0000   1.0000
     1.0000   1.0000   1.0000   1.0000   1.0000   1.0000   1.0000   1.0000
     1.0000   1.0000   1.0000   1.0000   1.0000   1.0000   1.0000   1.0000
     1.0000   1.0000   1.0000   1.0000   1.0000   1.0000   1.0000   1.0000
     1.0000   1.0000   1.0000   1.0000   1.0000   1.0000   1.0000   1.0000
     1.0000   1.0000   1.0000   1.0000   1.0000   1.0000   1.0000   1.0000
     1.0000   1.0000   1.0000   1.0000   1.0000   1.0000   1.0000   0.9988
     0.6019   0.3336   0.0270   0.0102   0.0047   0.0010   0.0001   0.0000
     0.0000   0.0000   0.0000   0.0000   0.0000   0.0000   0.0000   0.0000
     0.0000   0.0000   0.0000   0.0000   0.0000   0.0000   0.0000   0.0000
     0.0000   0.0000   0.0000   0.0000   0.0000   0.0000   0.0000   0.0000
     0.0000   0.0000   0.0000   0.0000   0.0000   0.0000   0.0000   0.0000
     0.0000   0.0000

          k =-0.2624-0.4857 0.0000 (116996 PWs)   bands (ev):

   -73.6294 -73.6281 -73.6273 -73.6215 -73.6207 -73.6205 -73.6173 -73.6098
   -69.8773 -69.8714 -69.8707 -69.8652 -69.8581 -69.8580 -69.8536 -69.8422
   -45.4925 -45.4896 -45.4886 -45.4859 -45.4830 -45.4803 -45.4766 -45.4738
   -45.1817 -45.1782 -45.1769 -45.1753 -45.1736 -45.1702 -45.1657 -45.1634
   -44.7556 -44.7532 -44.7523 -44.7492 -44.7459 -44.7425 -44.7392 -44.7368
   -41.4469 -41.4422 -41.4421 -41.4368 -41.4304 -41.4297 -41.4241 -41.4139
   -41.1879 -41.1816 -41.1804 -41.1751 -41.1692 -41.1691 -41.1614 -41.1538
   -40.7524 -40.7481 -40.7457 -40.7349 -40.7331 -40.7263 -40.7228 -40.7118
   -13.1376 -13.1291 -13.0294 -13.0238 -12.9448 -12.9353 -12.8476 -12.8408
   -12.5395 -12.5284 -12.4232 -12.4155 -12.2730 -12.2609 -12.1529 -12.1443
   -11.9926 -11.9878 -11.9122 -11.9106 -11.7550 -11.7492 -11.6809 -11.6783
   -11.4471 -11.4391 -11.3637 -11.3602 -11.1539 -11.1449 -11.0671 -11.0627
    -5.6963  -5.6926  -5.6121  -5.6102  -5.6056  -5.6031  -5.5169  -5.5162
    -5.4391  -5.4284  -5.3213  -5.3115  -5.1393  -5.1336  -5.0415  -5.0349
    -4.9825  -4.9789  -4.9642  -4.9568  -4.9100  -4.9076  -4.9061  -4.9018
    -4.4351  -4.4252  -4.3283  -4.3222  -4.3166  -4.3107  -4.2913  -4.2807
    -4.1363  -4.1295  -4.0799  -4.0721  -3.8311  -3.8291  -3.7496  -3.7467
    -3.7425  -3.7361  -3.6950  -3.6923  -3.6463  -3.6412  -3.6325  -3.6221
    -3.0370  -3.0223  -2.9948  -2.9873  -2.9631  -2.9568  -2.9152  -2.9036
    -2.8983  -2.8924  -2.8555  -2.8464  -2.7918  -2.7855  -2.7314  -2.7267
    -2.5696  -2.5621  -2.4736  -2.4627  -2.3915  -2.3807  -2.3680  -2.3539
    -2.0802  -2.0696  -2.0163  -2.0047  -1.8033  -1.7987  -1.7599  -1.7529
    -1.7159  -1.7101  -1.6019  -1.5933  -1.3947  -1.3890  -1.3335  -1.3273
    -1.1693  -1.1595  -1.1258  -1.1193  -1.0920  -1.0881  -1.0700  -1.0634
    -1.0556  -1.0491  -1.0462  -1.0439  -0.7736  -0.7606  -0.6932  -0.6865
    -0.6479  -0.6466  -0.6389  -0.6378  -0.5640  -0.5594  -0.4547  -0.4524
    -0.1723  -0.1715  -0.0675  -0.0667   0.1146   0.1188   0.1805   0.1897
     0.2120   0.2180   0.2608   0.2725   0.3292   0.3318   0.3985   0.4110
     0.6209   0.6271   0.8564   0.8597   0.8847   0.8914   1.0066   1.0105
     1.2782   1.2831   1.4329   1.4390   1.6578   1.6673   1.7559   1.7649
     2.2757   2.2796   2.2972   2.3112   2.3949   2.4034   2.4970   2.5147
     2.5595   2.5615

     occupation numbers 
     1.0000   1.0000   1.0000   1.0000   1.0000   1.0000   1.0000   1.0000
     1.0000   1.0000   1.0000   1.0000   1.0000   1.0000   1.0000   1.0000
     1.0000   1.0000   1.0000   1.0000   1.0000   1.0000   1.0000   1.0000
     1.0000   1.0000   1.0000   1.0000   1.0000   1.0000   1.0000   1.0000
     1.0000   1.0000   1.0000   1.0000   1.0000   1.0000   1.0000   1.0000
     1.0000   1.0000   1.0000   1.0000   1.0000   1.0000   1.0000   1.0000
     1.0000   1.0000   1.0000   1.0000   1.0000   1.0000   1.0000   1.0000
     1.0000   1.0000   1.0000   1.0000   1.0000   1.0000   1.0000   1.0000
     1.0000   1.0000   1.0000   1.0000   1.0000   1.0000   1.0000   1.0000
     1.0000   1.0000   1.0000   1.0000   1.0000   1.0000   1.0000   1.0000
     1.0000   1.0000   1.0000   1.0000   1.0000   1.0000   1.0000   1.0000
     1.0000   1.0000   1.0000   1.0000   1.0000   1.0000   1.0000   1.0000
     1.0000   1.0000   1.0000   1.0000   1.0000   1.0000   1.0000   1.0000
     1.0000   1.0000   1.0000   1.0000   1.0000   1.0000   1.0000   1.0000
     1.0000   1.0000   1.0000   1.0000   1.0000   1.0000   1.0000   1.0000
     1.0000   1.0000   1.0000   1.0000   1.0000   1.0000   1.0000   1.0000
     1.0000   1.0000   1.0000   1.0000   1.0000   1.0000   1.0000   1.0000
     1.0000   1.0000   1.0000   1.0000   1.0000   1.0000   1.0000   1.0000
     1.0000   1.0000   1.0000   1.0000   1.0000   1.0000   1.0000   1.0000
     1.0000   1.0000   1.0000   1.0000   1.0000   1.0000   1.0000   1.0000
     1.0000   1.0000   1.0000   1.0000   1.0000   1.0000   1.0000   1.0000
     1.0000   1.0000   1.0000   1.0000   1.0000   1.0000   1.0000   1.0000
     1.0000   1.0000   1.0000   1.0000   1.0000   1.0000   1.0000   1.0000
     1.0000   1.0000   1.0000   1.0000   1.0000   1.0000   1.0000   1.0000
     1.0000   1.0000   1.0000   1.0000   1.0000   1.0000   1.0000   1.0000
     1.0000   1.0000   1.0000   1.0000   1.0000   1.0000   1.0000   1.0000
     0.6370   0.6309   0.0338   0.0326   0.0000   0.0000   0.0000   0.0000
     0.0000   0.0000   0.0000   0.0000   0.0000   0.0000   0.0000   0.0000
     0.0000   0.0000   0.0000   0.0000   0.0000   0.0000   0.0000   0.0000
     0.0000   0.0000   0.0000   0.0000   0.0000   0.0000   0.0000   0.0000
     0.0000   0.0000   0.0000   0.0000   0.0000   0.0000   0.0000   0.0000
     0.0000   0.0000

          k =-0.2624-0.2429 0.0000 (117067 PWs)   bands (ev):

   -73.6294 -73.6280 -73.6272 -73.6216 -73.6208 -73.6204 -73.6173 -73.6098
   -69.8773 -69.8714 -69.8706 -69.8652 -69.8582 -69.8578 -69.8535 -69.8422
   -45.4924 -45.4897 -45.4885 -45.4859 -45.4831 -45.4805 -45.4765 -45.4737
   -45.1817 -45.1782 -45.1768 -45.1753 -45.1736 -45.1702 -45.1657 -45.1634
   -44.7556 -44.7534 -44.7521 -44.7492 -44.7460 -44.7428 -44.7389 -44.7367
   -41.4470 -41.4422 -41.4421 -41.4368 -41.4307 -41.4294 -41.4241 -41.4139
   -41.1879 -41.1816 -41.1804 -41.1751 -41.1694 -41.1689 -41.1614 -41.1538
   -40.7523 -40.7481 -40.7457 -40.7349 -40.7332 -40.7264 -40.7227 -40.7117
   -13.4430 -13.3232 -13.2713 -13.1653 -12.8190 -12.7573 -12.6923 -12.6744
   -12.5591 -12.5313 -12.4639 -12.4192 -12.2113 -12.1910 -12.1268 -12.0991
   -11.9838 -11.9255 -11.8947 -11.8416 -11.7560 -11.7107 -11.6230 -11.5202
   -11.4947 -11.4527 -11.3355 -11.2463 -11.2290 -11.2025 -10.9453 -10.8994
    -5.8608  -5.7938  -5.7883  -5.7470  -5.7094  -5.6839  -5.6637  -5.6566
    -5.6091  -5.5302  -5.3463  -5.2772  -5.2726  -5.2641  -5.1889  -5.1197
    -5.0714  -5.0594  -5.0466  -5.0429  -4.9979  -4.9904  -4.8923  -4.8289
    -4.8051  -4.7743  -4.7106  -4.6675  -4.5188  -4.4857  -4.3081  -4.2421
    -4.2373  -4.2305  -4.1313  -4.0477  -3.9880  -3.9532  -3.8633  -3.8510
    -3.8234  -3.8105  -3.6346  -3.6110  -3.5002  -3.3720  -3.3420  -3.3034
    -3.2464  -3.1942  -3.0773  -2.9705  -2.8624  -2.8195  -2.8087  -2.7145
    -2.6134  -2.6085  -2.5690  -2.5089  -2.4922  -2.4532  -2.4146  -2.3901
    -2.3831  -2.3771  -2.3663  -2.3100  -2.2660  -2.1738  -2.1474  -2.0396
    -2.0276  -1.9915  -1.9492  -1.9370  -1.9026  -1.8794  -1.8621  -1.6986
    -1.6465  -1.6348  -1.5871  -1.5736  -1.5569  -1.5413  -1.4416  -1.3221
    -1.2119  -1.2082  -1.1804  -1.1612  -1.1241  -1.0811  -1.0756  -1.0075
    -0.9707  -0.9552  -0.9223  -0.8802  -0.8759  -0.7967  -0.6296  -0.6031
    -0.5938  -0.5907  -0.5852  -0.5599  -0.5328  -0.4454  -0.3865  -0.3072
    -0.1690  -0.1347  -0.0617  -0.0379  -0.0304  -0.0063   0.0129   0.0639
     0.1463   0.2060   0.3195   0.3766   0.4026   0.6074   0.6319   0.7143
     0.7265   0.8325   0.8393   0.8818   0.9560   0.9629   1.0220   1.0537
     1.2628   1.2687   1.3768   1.4914   1.5280   1.7205   1.7656   1.8072
     1.9208   2.1656   2.2368   2.2502   2.2990   2.3465   2.3808   2.4153
     2.4249   2.4375

     occupation numbers 
     1.0000   1.0000   1.0000   1.0000   1.0000   1.0000   1.0000   1.0000
     1.0000   1.0000   1.0000   1.0000   1.0000   1.0000   1.0000   1.0000
     1.0000   1.0000   1.0000   1.0000   1.0000   1.0000   1.0000   1.0000
     1.0000   1.0000   1.0000   1.0000   1.0000   1.0000   1.0000   1.0000
     1.0000   1.0000   1.0000   1.0000   1.0000   1.0000   1.0000   1.0000
     1.0000   1.0000   1.0000   1.0000   1.0000   1.0000   1.0000   1.0000
     1.0000   1.0000   1.0000   1.0000   1.0000   1.0000   1.0000   1.0000
     1.0000   1.0000   1.0000   1.0000   1.0000   1.0000   1.0000   1.0000
     1.0000   1.0000   1.0000   1.0000   1.0000   1.0000   1.0000   1.0000
     1.0000   1.0000   1.0000   1.0000   1.0000   1.0000   1.0000   1.0000
     1.0000   1.0000   1.0000   1.0000   1.0000   1.0000   1.0000   1.0000
     1.0000   1.0000   1.0000   1.0000   1.0000   1.0000   1.0000   1.0000
     1.0000   1.0000   1.0000   1.0000   1.0000   1.0000   1.0000   1.0000
     1.0000   1.0000   1.0000   1.0000   1.0000   1.0000   1.0000   1.0000
     1.0000   1.0000   1.0000   1.0000   1.0000   1.0000   1.0000   1.0000
     1.0000   1.0000   1.0000   1.0000   1.0000   1.0000   1.0000   1.0000
     1.0000   1.0000   1.0000   1.0000   1.0000   1.0000   1.0000   1.0000
     1.0000   1.0000   1.0000   1.0000   1.0000   1.0000   1.0000   1.0000
     1.0000   1.0000   1.0000   1.0000   1.0000   1.0000   1.0000   1.0000
     1.0000   1.0000   1.0000   1.0000   1.0000   1.0000   1.0000   1.0000
     1.0000   1.0000   1.0000   1.0000   1.0000   1.0000   1.0000   1.0000
     1.0000   1.0000   1.0000   1.0000   1.0000   1.0000   1.0000   1.0000
     1.0000   1.0000   1.0000   1.0000   1.0000   1.0000   1.0000   1.0000
     1.0000   1.0000   1.0000   1.0000   1.0000   1.0000   1.0000   1.0000
     1.0000   1.0000   1.0000   1.0000   1.0000   1.0000   1.0000   1.0000
     1.0000   1.0000   1.0000   1.0000   1.0000   1.0000   1.0000   0.9992
     0.6112   0.3334   0.0257   0.0073   0.0047   0.0010   0.0002   0.0000
     0.0000   0.0000   0.0000   0.0000   0.0000   0.0000   0.0000   0.0000
     0.0000   0.0000   0.0000   0.0000   0.0000   0.0000   0.0000   0.0000
     0.0000   0.0000   0.0000   0.0000   0.0000   0.0000   0.0000   0.0000
     0.0000   0.0000   0.0000   0.0000   0.0000   0.0000   0.0000   0.0000
     0.0000   0.0000

     the Fermi energy is    -0.1554 ev

     Writing output data file crte2.save
 
     init_run     :   2277.26s CPU    130.24s WALL (       1 calls)
     electrons    : *********s CPU 134641.82s WALL (       1 calls)

     Called by init_run:
     wfcinit      :   1392.31s CPU     53.63s WALL (       1 calls)
     wfcinit:atom :    190.72s CPU     10.54s WALL (      16 calls)
     wfcinit:wfcr :  33527.01s CPU    552.16s WALL (      16 calls)
     potinit      :    131.93s CPU      4.36s WALL (       1 calls)

     Called by electrons:
     c_bands      : *********s CPU 134641.79s WALL (       1 calls)
     v_of_rho     :    102.95s CPU      3.08s WALL (       1 calls)
     v_h          :      4.97s CPU      0.08s WALL (       1 calls)
     v_xc         :     97.61s CPU      2.99s WALL (       1 calls)
     newd         :    609.20s CPU     11.13s WALL (       1 calls)

     Called by c_bands:
     init_us_2    :    374.53s CPU     21.52s WALL (      32 calls)
     ccgdiagg     : *********s CPU 131451.13s WALL (      96 calls)
     wfcrot       : 181399.43s CPU   2965.65s WALL (      96 calls)

     Called by sum_band:

     Called by *cgdiagg:
     h_psi        : *********s CPU  47187.03s WALL (  320295 calls)
     s_psi        : 646831.17s CPU  10015.23s WALL (  640510 calls)
     cdiaghg      :    426.10s CPU      7.14s WALL (      96 calls)

     Called by h_psi:
     h_psi:pot    : *********s CPU  44533.72s WALL (  320295 calls)
     h_psi:calbec : 198672.28s CPU   3416.96s WALL (  320295 calls)
     vloc_psi     : *********s CPU  36087.75s WALL (  320295 calls)
     add_vuspsi   : 313176.13s CPU   4864.83s WALL (  320295 calls)
     vhpsi        : 134036.26s CPU   2100.56s WALL (  320295 calls)
     h_1psi       : *********s CPU  49807.83s WALL (  320199 calls)

     General routines
     calbec       : 373437.42s CPU   6356.50s WALL (  640510 calls)
     fft          :     79.07s CPU      1.35s WALL (      27 calls)
     fftw         : *********s CPU  17816.41s WALL ( 1379228 calls)
     davcio       :    311.16s CPU     73.26s WALL (      48 calls)
 
     Parallel routines
     fft_scatter  : 950188.81s CPU  15477.31s WALL ( 1379255 calls)

     Hubbard U routines
     vhpsi        : 134036.26s CPU   2100.56s WALL (  320295 calls)
 
     PWSCF        :    79d   21h19m CPU        1d   13h26m WALL

 
   This run was terminated on:  23:27:31   8Jan2021            

=------------------------------------------------------------------------------=
   JOB DONE.
=------------------------------------------------------------------------------=
