
     Program BANDS v.6.1 starts on 20Jun2023 at 17: 6:16 

     This program is part of the open-source Quantum ESPRESSO suite
     for quantum simulation of materials; please cite
         "P. Giannozzi et al., J. Phys.:Condens. Matter 21 395502 (2009);
          URL http://www.quantum-espresso.org", 
     in publications or presentations arising from this work. More details at
     http://www.quantum-espresso.org/quote

     Parallel version (MPI), running on    16 processors
     R & G space division:  proc/nbgrp/npool/nimage =      16

     Reading data from directory:
     ./crte2.save

   Info: using nr1, nr2, nr3 values from input

   Info: using nr1, nr2, nr3 values from input

     IMPORTANT: XC functional enforced from input :
     Exchange-correlation      = PBE ( 1  4  3  4 0 0)
     Any further DFT definition will be discarded
     Please, verify this is what you really want

               file Cr.pbe.UPF: wavefunction(s)  3P renormalized
               file Te.pbe.UPF: wavefunction(s)  5S renormalized
 
     Parallelization info
     --------------------
     sticks:   dense  smooth     PW     G-vecs:    dense   smooth      PW
     Min         182      72     20                68262    17258    2566
     Max         183      73     23                68296    17305    2598
     Sum        2917    1159    337              1092513   276457   41337
 
     Generating pointlists ...
     new r_m :   0.4125 (alat units)  0.7795 (a.u.) for type    1
     new r_m :   0.4125 (alat units)  0.7795 (a.u.) for type    2

     negative rho (up, down):  2.444E-04 2.426E-04
     high-symmetry point:  0.1299 0.0750 0.0000   x coordinate   0.0000
     high-symmetry point:  0.0000 0.0000 0.0000   x coordinate   0.1500
     high-symmetry point:  0.1732 0.0000 0.0000   x coordinate   0.3231
     high-symmetry point:  0.1299 0.0750 0.0000   x coordinate   0.4097

     Plottable bands (eV) written to file band_dn.dat.gnu
     Bands written to file band_dn.dat

 **************************************************************************

                    xk=(   0.12987,   0.07498,   0.00000  )

     point group C_1 (1)    
     there are  1 classes
     the character table:

       E    
A      1.00

     the symmetry operations in each class and the name of the first element:

     E        1
                                                                 

     Band symmetry, C_1 (1)     point group:

     e(  1 -  1) =    -71.81405  eV     1   --> A              
     e(  2 -  2) =    -43.14738  eV     1   --> A              
     e(  3 -  3) =    -43.13837  eV     1   --> A              
     e(  4 -  4) =    -43.12569  eV     1   --> A              
     e(  5 -  5) =    -13.29561  eV     1   --> A              
     e(  6 -  6) =    -13.10064  eV     1   --> A              
     e(  7 -  7) =     -7.25760  eV     1   --> A              
     e(  8 -  8) =     -6.54485  eV     1   --> A              
     e(  9 -  9) =     -4.30771  eV     1   --> A              
     e( 10 - 10) =     -4.23334  eV     1   --> A              
     e( 11 - 11) =     -3.97964  eV     1   --> A              
     e( 12 - 12) =     -3.82957  eV     1   --> A              
     e( 13 - 13) =     -0.76488  eV     1   --> A              
     e( 14 - 14) =      0.31076  eV     1   --> A              
     e( 15 - 15) =      0.43204  eV     1   --> A              
     e( 16 - 16) =      1.15373  eV     1   --> A              
     e( 17 - 17) =      1.25068  eV     1   --> A              
     e( 18 - 18) =      2.12082  eV     1   --> A              
     e( 19 - 19) =      2.64618  eV     1   --> A              
     e( 20 - 20) =      3.33852  eV     1   --> A              
     e( 21 - 21) =      4.18695  eV     1   --> A              
     e( 22 - 22) =      4.89316  eV     1   --> A              
     e( 23 - 23) =      5.03375  eV     1   --> A              
     e( 24 - 24) =      5.38298  eV     1   --> A              
     e( 25 - 25) =      5.42076  eV     1   --> A              
     e( 26 - 26) =      5.49158  eV     1   --> A              
     e( 27 - 27) =      5.54874  eV     1   --> A              
     e( 28 - 28) =      5.74892  eV     1   --> A              
     e( 29 - 29) =      5.81644  eV     1   --> A              
     e( 30 - 30) =      5.99919  eV     1   --> A              
     e( 31 - 31) =      6.02395  eV     1   --> A              
     e( 32 - 32) =      6.18214  eV     1   --> A              
     e( 33 - 33) =      6.65700  eV     1   --> A              
     e( 34 - 34) =      6.90134  eV     1   --> A              
     e( 35 - 35) =      6.98661  eV     1   --> A              
     e( 36 - 36) =      7.18836  eV     1   --> A              
     e( 37 - 37) =      7.78957  eV     1   --> A              
     e( 38 - 38) =      8.03508  eV     1   --> A              
     e( 39 - 39) =      8.31321  eV     1   --> A              
     e( 40 - 40) =      8.49904  eV     1   --> A              
     e( 41 - 41) =      8.91741  eV     1   --> A              
     e( 42 - 42) =      9.23051  eV     1   --> A              
     e( 43 - 43) =      9.59578  eV     1   --> A              
     e( 44 - 44) =      9.96583  eV     1   --> A              
     e( 45 - 45) =     10.01104  eV     1   --> A              
     e( 46 - 46) =     10.11570  eV     1   --> A              
     e( 47 - 47) =     10.38737  eV     1   --> A              
     e( 48 - 48) =     11.40564  eV     1   --> A              
     e( 49 - 49) =     11.56901  eV     1   --> A              
     e( 50 - 50) =     11.58918  eV     1   --> A              
     e( 51 - 51) =     11.79208  eV     1   --> A              
     e( 52 - 52) =     11.90955  eV     1   --> A              
     e( 53 - 53) =     12.06664  eV     1   --> A              
     e( 54 - 54) =     12.13745  eV     1   --> A              
     e( 55 - 55) =     12.17116  eV     1   --> A              
     e( 56 - 56) =     12.23996  eV     1   --> A              
     e( 57 - 57) =     12.25650  eV     1   --> A              
     e( 58 - 58) =     12.35927  eV     1   --> A              
     e( 59 - 59) =     12.41606  eV     1   --> A              
     e( 60 - 60) =     12.68417  eV     1   --> A              
     e( 61 - 61) =     12.80400  eV     1   --> A              
     e( 62 - 62) =     12.80508  eV     1   --> A              
     e( 63 - 63) =     12.84594  eV     1   --> A              
     e( 64 - 64) =     12.99493  eV     1   --> A              

 **************************************************************************

 **************************************************************************

                    xk=(   0.12843,   0.07415,   0.00000  )

     Band symmetry, C_1 (1)     point group:

     e(  1 -  1) =    -71.81405  eV     1   --> A              
     e(  2 -  2) =    -43.14737  eV     1   --> A              
     e(  3 -  3) =    -43.13837  eV     1   --> A              
     e(  4 -  4) =    -43.12569  eV     1   --> A              
     e(  5 -  5) =    -13.29678  eV     1   --> A              
     e(  6 -  6) =    -13.10031  eV     1   --> A              
     e(  7 -  7) =     -7.25651  eV     1   --> A              
     e(  8 -  8) =     -6.54413  eV     1   --> A              
     e(  9 -  9) =     -4.31706  eV     1   --> A              
     e( 10 - 10) =     -4.22417  eV     1   --> A              
     e( 11 - 11) =     -3.97992  eV     1   --> A              
     e( 12 - 12) =     -3.82886  eV     1   --> A              
     e( 13 - 13) =     -0.76475  eV     1   --> A              
     e( 14 - 14) =      0.31085  eV     1   --> A              
     e( 15 - 15) =      0.43245  eV     1   --> A              
     e( 16 - 16) =      1.15326  eV     1   --> A              
     e( 17 - 17) =      1.25047  eV     1   --> A              
     e( 18 - 18) =      2.11926  eV     1   --> A              
     e( 19 - 19) =      2.64779  eV     1   --> A              
     e( 20 - 20) =      3.33987  eV     1   --> A              
     e( 21 - 21) =      4.18612  eV     1   --> A              
     e( 22 - 22) =      4.88202  eV     1   --> A              
     e( 23 - 23) =      5.03965  eV     1   --> A              
     e( 24 - 24) =      5.33254  eV     1   --> A              
     e( 25 - 25) =      5.43607  eV     1   --> A              
     e( 26 - 26) =      5.49543  eV     1   --> A              
     e( 27 - 27) =      5.58367  eV     1   --> A              
     e( 28 - 28) =      5.74940  eV     1   --> A              
     e( 29 - 29) =      5.80143  eV     1   --> A              
     e( 30 - 30) =      5.98325  eV     1   --> A              
     e( 31 - 31) =      6.03746  eV     1   --> A              
     e( 32 - 32) =      6.20452  eV     1   --> A              
     e( 33 - 33) =      6.64340  eV     1   --> A              
     e( 34 - 34) =      6.91581  eV     1   --> A              
     e( 35 - 35) =      6.96695  eV     1   --> A              
     e( 36 - 36) =      7.20961  eV     1   --> A              
     e( 37 - 37) =      7.77813  eV     1   --> A              
     e( 38 - 38) =      8.04591  eV     1   --> A              
     e( 39 - 39) =      8.29330  eV     1   --> A              
     e( 40 - 40) =      8.52061  eV     1   --> A              
     e( 41 - 41) =      8.91232  eV     1   --> A              
     e( 42 - 42) =      9.23670  eV     1   --> A              
     e( 43 - 43) =      9.59575  eV     1   --> A              
     e( 44 - 44) =      9.92165  eV     1   --> A              
     e( 45 - 45) =     10.04480  eV     1   --> A              
     e( 46 - 46) =     10.11820  eV     1   --> A              
     e( 47 - 47) =     10.39682  eV     1   --> A              
     e( 48 - 48) =     11.40549  eV     1   --> A              
     e( 49 - 49) =     11.55351  eV     1   --> A              
     e( 50 - 50) =     11.59500  eV     1   --> A              
     e( 51 - 51) =     11.77856  eV     1   --> A              
     e( 52 - 52) =     11.92200  eV     1   --> A              
     e( 53 - 53) =     12.05812  eV     1   --> A              
     e( 54 - 54) =     12.13729  eV     1   --> A              
     e( 55 - 55) =     12.17149  eV     1   --> A              
     e( 56 - 56) =     12.24139  eV     1   --> A              
     e( 57 - 57) =     12.25709  eV     1   --> A              
     e( 58 - 58) =     12.35726  eV     1   --> A              
     e( 59 - 59) =     12.42193  eV     1   --> A              
     e( 60 - 60) =     12.68392  eV     1   --> A              
     e( 61 - 61) =     12.80334  eV     1   --> A              
     e( 62 - 62) =     12.80558  eV     1   --> A              
     e( 63 - 63) =     12.84601  eV     1   --> A              
     e( 64 - 64) =     12.99565  eV     1   --> A              

 **************************************************************************

 **************************************************************************

                    xk=(   0.12698,   0.07331,   0.00000  )

     Band symmetry, C_1 (1)     point group:

     e(  1 -  1) =    -71.81405  eV     1   --> A              
     e(  2 -  2) =    -43.14736  eV     1   --> A              
     e(  3 -  3) =    -43.13837  eV     1   --> A              
     e(  4 -  4) =    -43.12569  eV     1   --> A              
     e(  5 -  5) =    -13.30028  eV     1   --> A              
     e(  6 -  6) =    -13.09933  eV     1   --> A              
     e(  7 -  7) =     -7.25326  eV     1   --> A              
     e(  8 -  8) =     -6.54198  eV     1   --> A              
     e(  9 -  9) =     -4.33779  eV     1   --> A              
     e( 10 - 10) =     -4.20395  eV     1   --> A              
     e( 11 - 11) =     -3.98074  eV     1   --> A              
     e( 12 - 12) =     -3.82674  eV     1   --> A              
     e( 13 - 13) =     -0.76435  eV     1   --> A              
     e( 14 - 14) =      0.31111  eV     1   --> A              
     e( 15 - 15) =      0.43368  eV     1   --> A              
     e( 16 - 16) =      1.15184  eV     1   --> A              
     e( 17 - 17) =      1.24982  eV     1   --> A              
     e( 18 - 18) =      2.11467  eV     1   --> A              
     e( 19 - 19) =      2.65258  eV     1   --> A              
     e( 20 - 20) =      3.34389  eV     1   --> A              
     e( 21 - 21) =      4.18359  eV     1   --> A              
     e( 22 - 22) =      4.85464  eV     1   --> A              
     e( 23 - 23) =      5.04999  eV     1   --> A              
     e( 24 - 24) =      5.26519  eV     1   --> A              
     e( 25 - 25) =      5.40001  eV     1   --> A              
     e( 26 - 26) =      5.55280  eV     1   --> A              
     e( 27 - 27) =      5.63882  eV     1   --> A              
     e( 28 - 28) =      5.75084  eV     1   --> A              
     e( 29 - 29) =      5.76986  eV     1   --> A              
     e( 30 - 30) =      5.94231  eV     1   --> A              
     e( 31 - 31) =      6.07768  eV     1   --> A              
     e( 32 - 32) =      6.25460  eV     1   --> A              
     e( 33 - 33) =      6.61011  eV     1   --> A              
     e( 34 - 34) =      6.91852  eV     1   --> A              
     e( 35 - 35) =      6.95622  eV     1   --> A              
     e( 36 - 36) =      7.25865  eV     1   --> A              
     e( 37 - 37) =      7.74877  eV     1   --> A              
     e( 38 - 38) =      8.07235  eV     1   --> A              
     e( 39 - 39) =      8.25058  eV     1   --> A              
     e( 40 - 40) =      8.56936  eV     1   --> A              
     e( 41 - 41) =      8.89827  eV     1   --> A              
     e( 42 - 42) =      9.25410  eV     1   --> A              
     e( 43 - 43) =      9.59566  eV     1   --> A              
     e( 44 - 44) =      9.85907  eV     1   --> A              
     e( 45 - 45) =     10.05350  eV     1   --> A              
     e( 46 - 46) =     10.15109  eV     1   --> A              
     e( 47 - 47) =     10.42235  eV     1   --> A              
     e( 48 - 48) =     11.40499  eV     1   --> A              
     e( 49 - 49) =     11.52389  eV     1   --> A              
     e( 50 - 50) =     11.59552  eV     1   --> A              
     e( 51 - 51) =     11.74887  eV     1   --> A              
     e( 52 - 52) =     11.94856  eV     1   --> A              
     e( 53 - 53) =     12.03316  eV     1   --> A              
     e( 54 - 54) =     12.13731  eV     1   --> A              
     e( 55 - 55) =     12.17252  eV     1   --> A              
     e( 56 - 56) =     12.24531  eV     1   --> A              
     e( 57 - 57) =     12.25874  eV     1   --> A              
     e( 58 - 58) =     12.35320  eV     1   --> A              
     e( 59 - 59) =     12.43721  eV     1   --> A              
     e( 60 - 60) =     12.68315  eV     1   --> A              
     e( 61 - 61) =     12.80160  eV     1   --> A              
     e( 62 - 62) =     12.80702  eV     1   --> A              
     e( 63 - 63) =     12.84624  eV     1   --> A              
     e( 64 - 64) =     12.99790  eV     1   --> A              

 **************************************************************************

 **************************************************************************

                    xk=(   0.12554,   0.07248,   0.00000  )

     Band symmetry, C_1 (1)     point group:

     e(  1 -  1) =    -71.81405  eV     1   --> A              
     e(  2 -  2) =    -43.14734  eV     1   --> A              
     e(  3 -  3) =    -43.13836  eV     1   --> A              
     e(  4 -  4) =    -43.12569  eV     1   --> A              
     e(  5 -  5) =    -13.30599  eV     1   --> A              
     e(  6 -  6) =    -13.09781  eV     1   --> A              
     e(  7 -  7) =     -7.24783  eV     1   --> A              
     e(  8 -  8) =     -6.53840  eV     1   --> A              
     e(  9 -  9) =     -4.36265  eV     1   --> A              
     e( 10 - 10) =     -4.17994  eV     1   --> A              
     e( 11 - 11) =     -3.98206  eV     1   --> A              
     e( 12 - 12) =     -3.82327  eV     1   --> A              
     e( 13 - 13) =     -0.76369  eV     1   --> A              
     e( 14 - 14) =      0.31155  eV     1   --> A              
     e( 15 - 15) =      0.43570  eV     1   --> A              
     e( 16 - 16) =      1.14947  eV     1   --> A              
     e( 17 - 17) =      1.24875  eV     1   --> A              
     e( 18 - 18) =      2.10728  eV     1   --> A              
     e( 19 - 19) =      2.66038  eV     1   --> A              
     e( 20 - 20) =      3.35047  eV     1   --> A              
     e( 21 - 21) =      4.17921  eV     1   --> A              
     e( 22 - 22) =      4.81968  eV     1   --> A              
     e( 23 - 23) =      5.05242  eV     1   --> A              
     e( 24 - 24) =      5.19743  eV     1   --> A              
     e( 25 - 25) =      5.36498  eV     1   --> A              
     e( 26 - 26) =      5.60707  eV     1   --> A              
     e( 27 - 27) =      5.68569  eV     1   --> A              
     e( 28 - 28) =      5.75214  eV     1   --> A              
     e( 29 - 29) =      5.75325  eV     1   --> A              
     e( 30 - 30) =      5.89848  eV     1   --> A              
     e( 31 - 31) =      6.12838  eV     1   --> A              
     e( 32 - 32) =      6.31478  eV     1   --> A              
     e( 33 - 33) =      6.56881  eV     1   --> A              
     e( 34 - 34) =      6.86547  eV     1   --> A              
     e( 35 - 35) =      7.00422  eV     1   --> A              
     e( 36 - 36) =      7.31895  eV     1   --> A              
     e( 37 - 37) =      7.70973  eV     1   --> A              
     e( 38 - 38) =      8.09906  eV     1   --> A              
     e( 39 - 39) =      8.20911  eV     1   --> A              
     e( 40 - 40) =      8.62814  eV     1   --> A              
     e( 41 - 41) =      8.87822  eV     1   --> A              
     e( 42 - 42) =      9.28008  eV     1   --> A              
     e( 43 - 43) =      9.59549  eV     1   --> A              
     e( 44 - 44) =      9.79494  eV     1   --> A              
     e( 45 - 45) =     10.03042  eV     1   --> A              
     e( 46 - 46) =     10.20959  eV     1   --> A              
     e( 47 - 47) =     10.45855  eV     1   --> A              
     e( 48 - 48) =     11.40406  eV     1   --> A              
     e( 49 - 49) =     11.48736  eV     1   --> A              
     e( 50 - 50) =     11.58369  eV     1   --> A              
     e( 51 - 51) =     11.71499  eV     1   --> A              
     e( 52 - 52) =     11.97731  eV     1   --> A              
     e( 53 - 53) =     11.99343  eV     1   --> A              
     e( 54 - 54) =     12.13865  eV     1   --> A              
     e( 55 - 55) =     12.17427  eV     1   --> A              
     e( 56 - 56) =     12.25074  eV     1   --> A              
     e( 57 - 57) =     12.26124  eV     1   --> A              
     e( 58 - 58) =     12.34966  eV     1   --> A              
     e( 59 - 59) =     12.45844  eV     1   --> A              
     e( 60 - 60) =     12.68179  eV     1   --> A              
     e( 61 - 61) =     12.79943  eV     1   --> A              
     e( 62 - 62) =     12.80930  eV     1   --> A              
     e( 63 - 63) =     12.84686  eV     1   --> A              
     e( 64 - 64) =     13.00194  eV     1   --> A              

 **************************************************************************

 **************************************************************************

                    xk=(   0.12410,   0.07165,   0.00000  )

     Band symmetry, C_1 (1)     point group:

     e(  1 -  1) =    -71.81405  eV     1   --> A              
     e(  2 -  2) =    -43.14731  eV     1   --> A              
     e(  3 -  3) =    -43.13835  eV     1   --> A              
     e(  4 -  4) =    -43.12570  eV     1   --> A              
     e(  5 -  5) =    -13.31375  eV     1   --> A              
     e(  6 -  6) =    -13.09590  eV     1   --> A              
     e(  7 -  7) =     -7.24026  eV     1   --> A              
     e(  8 -  8) =     -6.53340  eV     1   --> A              
     e(  9 -  9) =     -4.38916  eV     1   --> A              
     e( 10 - 10) =     -4.15462  eV     1   --> A              
     e( 11 - 11) =     -3.98380  eV     1   --> A              
     e( 12 - 12) =     -3.81853  eV     1   --> A              
     e( 13 - 13) =     -0.76276  eV     1   --> A              
     e( 14 - 14) =      0.31216  eV     1   --> A              
     e( 15 - 15) =      0.43848  eV     1   --> A              
     e( 16 - 16) =      1.14615  eV     1   --> A              
     e( 17 - 17) =      1.24725  eV     1   --> A              
     e( 18 - 18) =      2.09744  eV     1   --> A              
     e( 19 - 19) =      2.67096  eV     1   --> A              
     e( 20 - 20) =      3.35947  eV     1   --> A              
     e( 21 - 21) =      4.17274  eV     1   --> A              
     e( 22 - 22) =      4.78205  eV     1   --> A              
     e( 23 - 23) =      5.03841  eV     1   --> A              
     e( 24 - 24) =      5.13101  eV     1   --> A              
     e( 25 - 25) =      5.34102  eV     1   --> A              
     e( 26 - 26) =      5.61499  eV     1   --> A              
     e( 27 - 27) =      5.72261  eV     1   --> A              
     e( 28 - 28) =      5.75659  eV     1   --> A              
     e( 29 - 29) =      5.77844  eV     1   --> A              
     e( 30 - 30) =      5.87147  eV     1   --> A              
     e( 31 - 31) =      6.18055  eV     1   --> A              
     e( 32 - 32) =      6.37820  eV     1   --> A              
     e( 33 - 33) =      6.52772  eV     1   --> A              
     e( 34 - 34) =      6.81005  eV     1   --> A              
     e( 35 - 35) =      7.05845  eV     1   --> A              
     e( 36 - 36) =      7.38390  eV     1   --> A              
     e( 37 - 37) =      7.66662  eV     1   --> A              
     e( 38 - 38) =      8.09244  eV     1   --> A              
     e( 39 - 39) =      8.20353  eV     1   --> A              
     e( 40 - 40) =      8.68951  eV     1   --> A              
     e( 41 - 41) =      8.85601  eV     1   --> A              
     e( 42 - 42) =      9.31191  eV     1   --> A              
     e( 43 - 43) =      9.59524  eV     1   --> A              
     e( 44 - 44) =      9.73075  eV     1   --> A              
     e( 45 - 45) =      9.99874  eV     1   --> A              
     e( 46 - 46) =     10.27330  eV     1   --> A              
     e( 47 - 47) =     10.50098  eV     1   --> A              
     e( 48 - 48) =     11.40255  eV     1   --> A              
     e( 49 - 49) =     11.44593  eV     1   --> A              
     e( 50 - 50) =     11.55893  eV     1   --> A              
     e( 51 - 51) =     11.68135  eV     1   --> A              
     e( 52 - 52) =     11.94111  eV     1   --> A              
     e( 53 - 53) =     12.00328  eV     1   --> A              
     e( 54 - 54) =     12.14228  eV     1   --> A              
     e( 55 - 55) =     12.17677  eV     1   --> A              
     e( 56 - 56) =     12.25642  eV     1   --> A              
     e( 57 - 57) =     12.26444  eV     1   --> A              
     e( 58 - 58) =     12.34748  eV     1   --> A              
     e( 59 - 59) =     12.48323  eV     1   --> A              
     e( 60 - 60) =     12.67964  eV     1   --> A              
     e( 61 - 61) =     12.79771  eV     1   --> A              
     e( 62 - 62) =     12.81228  eV     1   --> A              
     e( 63 - 63) =     12.84867  eV     1   --> A              
     e( 64 - 64) =     13.00806  eV     1   --> A              

 **************************************************************************

 **************************************************************************

                    xk=(   0.12266,   0.07081,   0.00000  )

     Band symmetry, C_1 (1)     point group:

     e(  1 -  1) =    -71.81406  eV     1   --> A              
     e(  2 -  2) =    -43.14729  eV     1   --> A              
     e(  3 -  3) =    -43.13835  eV     1   --> A              
     e(  4 -  4) =    -43.12571  eV     1   --> A              
     e(  5 -  5) =    -13.32339  eV     1   --> A              
     e(  6 -  6) =    -13.09375  eV     1   --> A              
     e(  7 -  7) =     -7.23054  eV     1   --> A              
     e(  8 -  8) =     -6.52698  eV     1   --> A              
     e(  9 -  9) =     -4.41649  eV     1   --> A              
     e( 10 - 10) =     -4.12879  eV     1   --> A              
     e( 11 - 11) =     -3.98587  eV     1   --> A              
     e( 12 - 12) =     -3.81259  eV     1   --> A              
     e( 13 - 13) =     -0.76157  eV     1   --> A              
     e( 14 - 14) =      0.31295  eV     1   --> A              
     e( 15 - 15) =      0.44199  eV     1   --> A              
     e( 16 - 16) =      1.14189  eV     1   --> A              
     e( 17 - 17) =      1.24532  eV     1   --> A              
     e( 18 - 18) =      2.08559  eV     1   --> A              
     e( 19 - 19) =      2.68404  eV     1   --> A              
     e( 20 - 20) =      3.37067  eV     1   --> A              
     e( 21 - 21) =      4.16386  eV     1   --> A              
     e( 22 - 22) =      4.74431  eV     1   --> A              
     e( 23 - 23) =      5.00576  eV     1   --> A              
     e( 24 - 24) =      5.06723  eV     1   --> A              
     e( 25 - 25) =      5.32546  eV     1   --> A              
     e( 26 - 26) =      5.58157  eV     1   --> A              
     e( 27 - 27) =      5.75032  eV     1   --> A              
     e( 28 - 28) =      5.76090  eV     1   --> A              
     e( 29 - 29) =      5.81397  eV     1   --> A              
     e( 30 - 30) =      5.89590  eV     1   --> A              
     e( 31 - 31) =      6.22676  eV     1   --> A              
     e( 32 - 32) =      6.44065  eV     1   --> A              
     e( 33 - 33) =      6.49471  eV     1   --> A              
     e( 34 - 34) =      6.75772  eV     1   --> A              
     e( 35 - 35) =      7.11450  eV     1   --> A              
     e( 36 - 36) =      7.45079  eV     1   --> A              
     e( 37 - 37) =      7.62284  eV     1   --> A              
     e( 38 - 38) =      8.04859  eV     1   --> A              
     e( 39 - 39) =      8.23735  eV     1   --> A              
     e( 40 - 40) =      8.74523  eV     1   --> A              
     e( 41 - 41) =      8.83979  eV     1   --> A              
     e( 42 - 42) =      9.34735  eV     1   --> A              
     e( 43 - 43) =      9.59487  eV     1   --> A              
     e( 44 - 44) =      9.66698  eV     1   --> A              
     e( 45 - 45) =      9.96514  eV     1   --> A              
     e( 46 - 46) =     10.33770  eV     1   --> A              
     e( 47 - 47) =     10.54684  eV     1   --> A              
     e( 48 - 48) =     11.40010  eV     1   --> A              
     e( 49 - 49) =     11.40102  eV     1   --> A              
     e( 50 - 50) =     11.52328  eV     1   --> A              
     e( 51 - 51) =     11.64840  eV     1   --> A              
     e( 52 - 52) =     11.87869  eV     1   --> A              
     e( 53 - 53) =     12.02451  eV     1   --> A              
     e( 54 - 54) =     12.14832  eV     1   --> A              
     e( 55 - 55) =     12.18000  eV     1   --> A              
     e( 56 - 56) =     12.26107  eV     1   --> A              
     e( 57 - 57) =     12.26827  eV     1   --> A              
     e( 58 - 58) =     12.34633  eV     1   --> A              
     e( 59 - 59) =     12.50978  eV     1   --> A              
     e( 60 - 60) =     12.67636  eV     1   --> A              
     e( 61 - 61) =     12.79744  eV     1   --> A              
     e( 62 - 62) =     12.81586  eV     1   --> A              
     e( 63 - 63) =     12.85326  eV     1   --> A              
     e( 64 - 64) =     13.01654  eV     1   --> A              

 **************************************************************************

 **************************************************************************

                    xk=(   0.12121,   0.06998,   0.00000  )

     Band symmetry, C_1 (1)     point group:

     e(  1 -  1) =    -71.81407  eV     1   --> A              
     e(  2 -  2) =    -43.14725  eV     1   --> A              
     e(  3 -  3) =    -43.13834  eV     1   --> A              
     e(  4 -  4) =    -43.12572  eV     1   --> A              
     e(  5 -  5) =    -13.33472  eV     1   --> A              
     e(  6 -  6) =    -13.09153  eV     1   --> A              
     e(  7 -  7) =     -7.21869  eV     1   --> A              
     e(  8 -  8) =     -6.51917  eV     1   --> A              
     e(  9 -  9) =     -4.44430  eV     1   --> A              
     e( 10 - 10) =     -4.10279  eV     1   --> A              
     e( 11 - 11) =     -3.98818  eV     1   --> A              
     e( 12 - 12) =     -3.80556  eV     1   --> A              
     e( 13 - 13) =     -0.76011  eV     1   --> A              
     e( 14 - 14) =      0.31392  eV     1   --> A              
     e( 15 - 15) =      0.44615  eV     1   --> A              
     e( 16 - 16) =      1.13668  eV     1   --> A              
     e( 17 - 17) =      1.24296  eV     1   --> A              
     e( 18 - 18) =      2.07221  eV     1   --> A              
     e( 19 - 19) =      2.69936  eV     1   --> A              
     e( 20 - 20) =      3.38380  eV     1   --> A              
     e( 21 - 21) =      4.15218  eV     1   --> A              
     e( 22 - 22) =      4.70796  eV     1   --> A              
     e( 23 - 23) =      4.95780  eV     1   --> A              
     e( 24 - 24) =      5.00714  eV     1   --> A              
     e( 25 - 25) =      5.30997  eV     1   --> A              
     e( 26 - 26) =      5.53902  eV     1   --> A              
     e( 27 - 27) =      5.73926  eV     1   --> A              
     e( 28 - 28) =      5.76615  eV     1   --> A              
     e( 29 - 29) =      5.87587  eV     1   --> A              
     e( 30 - 30) =      5.95609  eV     1   --> A              
     e( 31 - 31) =      6.25591  eV     1   --> A              
     e( 32 - 32) =      6.48148  eV     1   --> A              
     e( 33 - 33) =      6.49504  eV     1   --> A              
     e( 34 - 34) =      6.71611  eV     1   --> A              
     e( 35 - 35) =      7.16949  eV     1   --> A              
     e( 36 - 36) =      7.51740  eV     1   --> A              
     e( 37 - 37) =      7.58173  eV     1   --> A              
     e( 38 - 38) =      7.99609  eV     1   --> A              
     e( 39 - 39) =      8.28184  eV     1   --> A              
     e( 40 - 40) =      8.76676  eV     1   --> A              
     e( 41 - 41) =      8.85872  eV     1   --> A              
     e( 42 - 42) =      9.38455  eV     1   --> A              
     e( 43 - 43) =      9.59434  eV     1   --> A              
     e( 44 - 44) =      9.60389  eV     1   --> A              
     e( 45 - 45) =      9.93255  eV     1   --> A              
     e( 46 - 46) =     10.40116  eV     1   --> A              
     e( 47 - 47) =     10.59436  eV     1   --> A              
     e( 48 - 48) =     11.35342  eV     1   --> A              
     e( 49 - 49) =     11.39649  eV     1   --> A              
     e( 50 - 50) =     11.48004  eV     1   --> A              
     e( 51 - 51) =     11.61545  eV     1   --> A              
     e( 52 - 52) =     11.80861  eV     1   --> A              
     e( 53 - 53) =     12.04065  eV     1   --> A              
     e( 54 - 54) =     12.15558  eV     1   --> A              
     e( 55 - 55) =     12.18391  eV     1   --> A              
     e( 56 - 56) =     12.26355  eV     1   --> A              
     e( 57 - 57) =     12.27273  eV     1   --> A              
     e( 58 - 58) =     12.34529  eV     1   --> A              
     e( 59 - 59) =     12.53668  eV     1   --> A              
     e( 60 - 60) =     12.67134  eV     1   --> A              
     e( 61 - 61) =     12.79947  eV     1   --> A              
     e( 62 - 62) =     12.81996  eV     1   --> A              
     e( 63 - 63) =     12.86291  eV     1   --> A              
     e( 64 - 64) =     13.02762  eV     1   --> A              

 **************************************************************************

 **************************************************************************

                    xk=(   0.11977,   0.06915,   0.00000  )

     Band symmetry, C_1 (1)     point group:

     e(  1 -  1) =    -71.81407  eV     1   --> A              
     e(  2 -  2) =    -43.14720  eV     1   --> A              
     e(  3 -  3) =    -43.13833  eV     1   --> A              
     e(  4 -  4) =    -43.12573  eV     1   --> A              
     e(  5 -  5) =    -13.34758  eV     1   --> A              
     e(  6 -  6) =    -13.08940  eV     1   --> A              
     e(  7 -  7) =     -7.20475  eV     1   --> A              
     e(  8 -  8) =     -6.50996  eV     1   --> A              
     e(  9 -  9) =     -4.47242  eV     1   --> A              
     e( 10 - 10) =     -4.07676  eV     1   --> A              
     e( 11 - 11) =     -3.99064  eV     1   --> A              
     e( 12 - 12) =     -3.79753  eV     1   --> A              
     e( 13 - 13) =     -0.75838  eV     1   --> A              
     e( 14 - 14) =      0.31506  eV     1   --> A              
     e( 15 - 15) =      0.45090  eV     1   --> A              
     e( 16 - 16) =      1.13052  eV     1   --> A              
     e( 17 - 17) =      1.24018  eV     1   --> A              
     e( 18 - 18) =      2.05776  eV     1   --> A              
     e( 19 - 19) =      2.71667  eV     1   --> A              
     e( 20 - 20) =      3.39855  eV     1   --> A              
     e( 21 - 21) =      4.13728  eV     1   --> A              
     e( 22 - 22) =      4.67393  eV     1   --> A              
     e( 23 - 23) =      4.90044  eV     1   --> A              
     e( 24 - 24) =      4.95017  eV     1   --> A              
     e( 25 - 25) =      5.28716  eV     1   --> A              
     e( 26 - 26) =      5.49368  eV     1   --> A              
     e( 27 - 27) =      5.72924  eV     1   --> A              
     e( 28 - 28) =      5.77233  eV     1   --> A              
     e( 29 - 29) =      5.94560  eV     1   --> A              
     e( 30 - 30) =      6.02532  eV     1   --> A              
     e( 31 - 31) =      6.25850  eV     1   --> A              
     e( 32 - 32) =      6.49750  eV     1   --> A              
     e( 33 - 33) =      6.52450  eV     1   --> A              
     e( 34 - 34) =      6.70392  eV     1   --> A              
     e( 35 - 35) =      7.21965  eV     1   --> A              
     e( 36 - 36) =      7.54245  eV     1   --> A              
     e( 37 - 37) =      7.58625  eV     1   --> A              
     e( 38 - 38) =      7.94461  eV     1   --> A              
     e( 39 - 39) =      8.32793  eV     1   --> A              
     e( 40 - 40) =      8.75240  eV     1   --> A              
     e( 41 - 41) =      8.91551  eV     1   --> A              
     e( 42 - 42) =      9.42171  eV     1   --> A              
     e( 43 - 43) =      9.54165  eV     1   --> A              
     e( 44 - 44) =      9.59367  eV     1   --> A              
     e( 45 - 45) =      9.90313  eV     1   --> A              
     e( 46 - 46) =     10.46227  eV     1   --> A              
     e( 47 - 47) =     10.64239  eV     1   --> A              
     e( 48 - 48) =     11.30429  eV     1   --> A              
     e( 49 - 49) =     11.39063  eV     1   --> A              
     e( 50 - 50) =     11.43197  eV     1   --> A              
     e( 51 - 51) =     11.58262  eV     1   --> A              
     e( 52 - 52) =     11.73344  eV     1   --> A              
     e( 53 - 53) =     12.05205  eV     1   --> A              
     e( 54 - 54) =     12.16172  eV     1   --> A              
     e( 55 - 55) =     12.18846  eV     1   --> A              
     e( 56 - 56) =     12.26325  eV     1   --> A              
     e( 57 - 57) =     12.27781  eV     1   --> A              
     e( 58 - 58) =     12.34363  eV     1   --> A              
     e( 59 - 59) =     12.56307  eV     1   --> A              
     e( 60 - 60) =     12.66370  eV     1   --> A              
     e( 61 - 61) =     12.80395  eV     1   --> A              
     e( 62 - 62) =     12.82451  eV     1   --> A              
     e( 63 - 63) =     12.88015  eV     1   --> A              
     e( 64 - 64) =     13.04153  eV     1   --> A              

 **************************************************************************

 **************************************************************************

                    xk=(   0.11833,   0.06832,   0.00000  )

     Band symmetry, C_1 (1)     point group:

     e(  1 -  1) =    -71.81408  eV     1   --> A              
     e(  2 -  2) =    -43.14714  eV     1   --> A              
     e(  3 -  3) =    -43.13831  eV     1   --> A              
     e(  4 -  4) =    -43.12574  eV     1   --> A              
     e(  5 -  5) =    -13.36180  eV     1   --> A              
     e(  6 -  6) =    -13.08747  eV     1   --> A              
     e(  7 -  7) =     -7.18872  eV     1   --> A              
     e(  8 -  8) =     -6.49938  eV     1   --> A              
     e(  9 -  9) =     -4.50073  eV     1   --> A              
     e( 10 - 10) =     -4.05078  eV     1   --> A              
     e( 11 - 11) =     -3.99318  eV     1   --> A              
     e( 12 - 12) =     -3.78857  eV     1   --> A              
     e( 13 - 13) =     -0.75638  eV     1   --> A              
     e( 14 - 14) =      0.31639  eV     1   --> A              
     e( 15 - 15) =      0.45616  eV     1   --> A              
     e( 16 - 16) =      1.12342  eV     1   --> A              
     e( 17 - 17) =      1.23697  eV     1   --> A              
     e( 18 - 18) =      2.04271  eV     1   --> A              
     e( 19 - 19) =      2.73574  eV     1   --> A              
     e( 20 - 20) =      3.41456  eV     1   --> A              
     e( 21 - 21) =      4.11880  eV     1   --> A              
     e( 22 - 22) =      4.64270  eV     1   --> A              
     e( 23 - 23) =      4.83902  eV     1   --> A              
     e( 24 - 24) =      4.89492  eV     1   --> A              
     e( 25 - 25) =      5.25460  eV     1   --> A              
     e( 26 - 26) =      5.44571  eV     1   --> A              
     e( 27 - 27) =      5.73059  eV     1   --> A              
     e( 28 - 28) =      5.77944  eV     1   --> A              
     e( 29 - 29) =      6.01433  eV     1   --> A              
     e( 30 - 30) =      6.09686  eV     1   --> A              
     e( 31 - 31) =      6.24323  eV     1   --> A              
     e( 32 - 32) =      6.50352  eV     1   --> A              
     e( 33 - 33) =      6.54793  eV     1   --> A              
     e( 34 - 34) =      6.73679  eV     1   --> A              
     e( 35 - 35) =      7.25823  eV     1   --> A              
     e( 36 - 36) =      7.52006  eV     1   --> A              
     e( 37 - 37) =      7.64429  eV     1   --> A              
     e( 38 - 38) =      7.90067  eV     1   --> A              
     e( 39 - 39) =      8.37202  eV     1   --> A              
     e( 40 - 40) =      8.73251  eV     1   --> A              
     e( 41 - 41) =      8.98121  eV     1   --> A              
     e( 42 - 42) =      9.45646  eV     1   --> A              
     e( 43 - 43) =      9.48093  eV     1   --> A              
     e( 44 - 44) =      9.59273  eV     1   --> A              
     e( 45 - 45) =      9.87915  eV     1   --> A              
     e( 46 - 46) =     10.51919  eV     1   --> A              
     e( 47 - 47) =     10.69021  eV     1   --> A              
     e( 48 - 48) =     11.25435  eV     1   --> A              
     e( 49 - 49) =     11.38049  eV     1   --> A              
     e( 50 - 50) =     11.38137  eV     1   --> A              
     e( 51 - 51) =     11.55128  eV     1   --> A              
     e( 52 - 52) =     11.65623  eV     1   --> A              
     e( 53 - 53) =     12.05855  eV     1   --> A              
     e( 54 - 54) =     12.16356  eV     1   --> A              
     e( 55 - 55) =     12.19358  eV     1   --> A              
     e( 56 - 56) =     12.26094  eV     1   --> A              
     e( 57 - 57) =     12.28350  eV     1   --> A              
     e( 58 - 58) =     12.34175  eV     1   --> A              
     e( 59 - 59) =     12.58862  eV     1   --> A              
     e( 60 - 60) =     12.65222  eV     1   --> A              
     e( 61 - 61) =     12.81034  eV     1   --> A              
     e( 62 - 62) =     12.82947  eV     1   --> A              
     e( 63 - 63) =     12.90681  eV     1   --> A              
     e( 64 - 64) =     13.05851  eV     1   --> A              

 **************************************************************************

 **************************************************************************

                    xk=(   0.11688,   0.06748,   0.00000  )

     Band symmetry, C_1 (1)     point group:

     e(  1 -  1) =    -71.81409  eV     1   --> A              
     e(  2 -  2) =    -43.14709  eV     1   --> A              
     e(  3 -  3) =    -43.13830  eV     1   --> A              
     e(  4 -  4) =    -43.12575  eV     1   --> A              
     e(  5 -  5) =    -13.37725  eV     1   --> A              
     e(  6 -  6) =    -13.08586  eV     1   --> A              
     e(  7 -  7) =     -7.17065  eV     1   --> A              
     e(  8 -  8) =     -6.48746  eV     1   --> A              
     e(  9 -  9) =     -4.52918  eV     1   --> A              
     e( 10 - 10) =     -4.02490  eV     1   --> A              
     e( 11 - 11) =     -3.99572  eV     1   --> A              
     e( 12 - 12) =     -3.77876  eV     1   --> A              
     e( 13 - 13) =     -0.75412  eV     1   --> A              
     e( 14 - 14) =      0.31791  eV     1   --> A              
     e( 15 - 15) =      0.46184  eV     1   --> A              
     e( 16 - 16) =      1.11537  eV     1   --> A              
     e( 17 - 17) =      1.23333  eV     1   --> A              
     e( 18 - 18) =      2.02750  eV     1   --> A              
     e( 19 - 19) =      2.75641  eV     1   --> A              
     e( 20 - 20) =      3.43147  eV     1   --> A              
     e( 21 - 21) =      4.09648  eV     1   --> A              
     e( 22 - 22) =      4.61415  eV     1   --> A              
     e( 23 - 23) =      4.77660  eV     1   --> A              
     e( 24 - 24) =      4.84124  eV     1   --> A              
     e( 25 - 25) =      5.21387  eV     1   --> A              
     e( 26 - 26) =      5.39510  eV     1   --> A              
     e( 27 - 27) =      5.74089  eV     1   --> A              
     e( 28 - 28) =      5.78747  eV     1   --> A              
     e( 29 - 29) =      6.07277  eV     1   --> A              
     e( 30 - 30) =      6.16620  eV     1   --> A              
     e( 31 - 31) =      6.23349  eV     1   --> A              
     e( 32 - 32) =      6.46925  eV     1   --> A              
     e( 33 - 33) =      6.60296  eV     1   --> A              
     e( 34 - 34) =      6.79631  eV     1   --> A              
     e( 35 - 35) =      7.27539  eV     1   --> A              
     e( 36 - 36) =      7.51859  eV     1   --> A              
     e( 37 - 37) =      7.68439  eV     1   --> A              
     e( 38 - 38) =      7.87801  eV     1   --> A              
     e( 39 - 39) =      8.41067  eV     1   --> A              
     e( 40 - 40) =      8.71670  eV     1   --> A              
     e( 41 - 41) =      9.04835  eV     1   --> A              
     e( 42 - 42) =      9.42093  eV     1   --> A              
     e( 43 - 43) =      9.48750  eV     1   --> A              
     e( 44 - 44) =      9.59150  eV     1   --> A              
     e( 45 - 45) =      9.86337  eV     1   --> A              
     e( 46 - 46) =     10.56939  eV     1   --> A              
     e( 47 - 47) =     10.73734  eV     1   --> A              
     e( 48 - 48) =     11.20455  eV     1   --> A              
     e( 49 - 49) =     11.32825  eV     1   --> A              
     e( 50 - 50) =     11.36378  eV     1   --> A              
     e( 51 - 51) =     11.52363  eV     1   --> A              
     e( 52 - 52) =     11.58161  eV     1   --> A              
     e( 53 - 53) =     12.05801  eV     1   --> A              
     e( 54 - 54) =     12.15885  eV     1   --> A              
     e( 55 - 55) =     12.19918  eV     1   --> A              
     e( 56 - 56) =     12.25952  eV     1   --> A              
     e( 57 - 57) =     12.28975  eV     1   --> A              
     e( 58 - 58) =     12.34092  eV     1   --> A              
     e( 59 - 59) =     12.61312  eV     1   --> A              
     e( 60 - 60) =     12.63543  eV     1   --> A              
     e( 61 - 61) =     12.81800  eV     1   --> A              
     e( 62 - 62) =     12.83479  eV     1   --> A              
     e( 63 - 63) =     12.94298  eV     1   --> A              
     e( 64 - 64) =     13.07064  eV     1   --> A              

 **************************************************************************

 **************************************************************************

                    xk=(   0.11544,   0.06665,   0.00000  )

     Band symmetry, C_1 (1)     point group:

     e(  1 -  1) =    -71.81410  eV     1   --> A              
     e(  2 -  2) =    -43.14702  eV     1   --> A              
     e(  3 -  3) =    -43.13829  eV     1   --> A              
     e(  4 -  4) =    -43.12576  eV     1   --> A              
     e(  5 -  5) =    -13.39381  eV     1   --> A              
     e(  6 -  6) =    -13.08465  eV     1   --> A              
     e(  7 -  7) =     -7.15056  eV     1   --> A              
     e(  8 -  8) =     -6.47420  eV     1   --> A              
     e(  9 -  9) =     -4.55770  eV     1   --> A              
     e( 10 - 10) =     -3.99937  eV     1   --> A              
     e( 11 - 11) =     -3.99799  eV     1   --> A              
     e( 12 - 12) =     -3.76815  eV     1   --> A              
     e( 13 - 13) =     -0.75159  eV     1   --> A              
     e( 14 - 14) =      0.31960  eV     1   --> A              
     e( 15 - 15) =      0.46783  eV     1   --> A              
     e( 16 - 16) =      1.10637  eV     1   --> A              
     e( 17 - 17) =      1.22927  eV     1   --> A              
     e( 18 - 18) =      2.01255  eV     1   --> A              
     e( 19 - 19) =      2.77852  eV     1   --> A              
     e( 20 - 20) =      3.44884  eV     1   --> A              
     e( 21 - 21) =      4.07026  eV     1   --> A              
     e( 22 - 22) =      4.58721  eV     1   --> A              
     e( 23 - 23) =      4.71477  eV     1   --> A              
     e( 24 - 24) =      4.79019  eV     1   --> A              
     e( 25 - 25) =      5.16768  eV     1   --> A              
     e( 26 - 26) =      5.34258  eV     1   --> A              
     e( 27 - 27) =      5.75411  eV     1   --> A              
     e( 28 - 28) =      5.79641  eV     1   --> A              
     e( 29 - 29) =      6.09928  eV     1   --> A              
     e( 30 - 30) =      6.22478  eV     1   --> A              
     e( 31 - 31) =      6.26414  eV     1   --> A              
     e( 32 - 32) =      6.43185  eV     1   --> A              
     e( 33 - 33) =      6.66537  eV     1   --> A              
     e( 34 - 34) =      6.86579  eV     1   --> A              
     e( 35 - 35) =      7.26749  eV     1   --> A              
     e( 36 - 36) =      7.54117  eV     1   --> A              
     e( 37 - 37) =      7.68792  eV     1   --> A              
     e( 38 - 38) =      7.89643  eV     1   --> A              
     e( 39 - 39) =      8.43932  eV     1   --> A              
     e( 40 - 40) =      8.71070  eV     1   --> A              
     e( 41 - 41) =      9.11381  eV     1   --> A              
     e( 42 - 42) =      9.36495  eV     1   --> A              
     e( 43 - 43) =      9.51007  eV     1   --> A              
     e( 44 - 44) =      9.58991  eV     1   --> A              
     e( 45 - 45) =      9.85895  eV     1   --> A              
     e( 46 - 46) =     10.60965  eV     1   --> A              
     e( 47 - 47) =     10.78309  eV     1   --> A              
     e( 48 - 48) =     11.15640  eV     1   --> A              
     e( 49 - 49) =     11.27490  eV     1   --> A              
     e( 50 - 50) =     11.33215  eV     1   --> A              
     e( 51 - 51) =     11.50222  eV     1   --> A              
     e( 52 - 52) =     11.51746  eV     1   --> A              
     e( 53 - 53) =     12.04497  eV     1   --> A              
     e( 54 - 54) =     12.15076  eV     1   --> A              
     e( 55 - 55) =     12.20510  eV     1   --> A              
     e( 56 - 56) =     12.26188  eV     1   --> A              
     e( 57 - 57) =     12.29650  eV     1   --> A              
     e( 58 - 58) =     12.34205  eV     1   --> A              
     e( 59 - 59) =     12.61203  eV     1   --> A              
     e( 60 - 60) =     12.63609  eV     1   --> A              
     e( 61 - 61) =     12.82655  eV     1   --> A              
     e( 62 - 62) =     12.84046  eV     1   --> A              
     e( 63 - 63) =     12.98735  eV     1   --> A              
     e( 64 - 64) =     13.02753  eV     1   --> A              

 **************************************************************************

 **************************************************************************

                    xk=(   0.11400,   0.06582,   0.00000  )

     Band symmetry, C_1 (1)     point group:

     e(  1 -  1) =    -71.81410  eV     1   --> A              
     e(  2 -  2) =    -43.14694  eV     1   --> A              
     e(  3 -  3) =    -43.13827  eV     1   --> A              
     e(  4 -  4) =    -43.12578  eV     1   --> A              
     e(  5 -  5) =    -13.41138  eV     1   --> A              
     e(  6 -  6) =    -13.08391  eV     1   --> A              
     e(  7 -  7) =     -7.12849  eV     1   --> A              
     e(  8 -  8) =     -6.45964  eV     1   --> A              
     e(  9 -  9) =     -4.58624  eV     1   --> A              
     e( 10 - 10) =     -4.00066  eV     1   --> A              
     e( 11 - 11) =     -3.97349  eV     1   --> A              
     e( 12 - 12) =     -3.75679  eV     1   --> A              
     e( 13 - 13) =     -0.74878  eV     1   --> A              
     e( 14 - 14) =      0.32149  eV     1   --> A              
     e( 15 - 15) =      0.47401  eV     1   --> A              
     e( 16 - 16) =      1.09644  eV     1   --> A              
     e( 17 - 17) =      1.22478  eV     1   --> A              
     e( 18 - 18) =      1.99822  eV     1   --> A              
     e( 19 - 19) =      2.80198  eV     1   --> A              
     e( 20 - 20) =      3.46626  eV     1   --> A              
     e( 21 - 21) =      4.04027  eV     1   --> A              
     e( 22 - 22) =      4.55936  eV     1   --> A              
     e( 23 - 23) =      4.65481  eV     1   --> A              
     e( 24 - 24) =      4.74385  eV     1   --> A              
     e( 25 - 25) =      5.11824  eV     1   --> A              
     e( 26 - 26) =      5.28910  eV     1   --> A              
     e( 27 - 27) =      5.76371  eV     1   --> A              
     e( 28 - 28) =      5.80623  eV     1   --> A              
     e( 29 - 29) =      6.09225  eV     1   --> A              
     e( 30 - 30) =      6.28149  eV     1   --> A              
     e( 31 - 31) =      6.31900  eV     1   --> A              
     e( 32 - 32) =      6.41278  eV     1   --> A              
     e( 33 - 33) =      6.73026  eV     1   --> A              
     e( 34 - 34) =      6.93942  eV     1   --> A              
     e( 35 - 35) =      7.24320  eV     1   --> A              
     e( 36 - 36) =      7.57140  eV     1   --> A              
     e( 37 - 37) =      7.67094  eV     1   --> A              
     e( 38 - 38) =      7.94841  eV     1   --> A              
     e( 39 - 39) =      8.45341  eV     1   --> A              
     e( 40 - 40) =      8.71938  eV     1   --> A              
     e( 41 - 41) =      9.17051  eV     1   --> A              
     e( 42 - 42) =      9.31852  eV     1   --> A              
     e( 43 - 43) =      9.52261  eV     1   --> A              
     e( 44 - 44) =      9.58786  eV     1   --> A              
     e( 45 - 45) =      9.86840  eV     1   --> A              
     e( 46 - 46) =     10.63689  eV     1   --> A              
     e( 47 - 47) =     10.82501  eV     1   --> A              
     e( 48 - 48) =     11.11300  eV     1   --> A              
     e( 49 - 49) =     11.22169  eV     1   --> A              
     e( 50 - 50) =     11.27841  eV     1   --> A              
     e( 51 - 51) =     11.47181  eV     1   --> A              
     e( 52 - 52) =     11.48959  eV     1   --> A              
     e( 53 - 53) =     12.01447  eV     1   --> A              
     e( 54 - 54) =     12.14672  eV     1   --> A              
     e( 55 - 55) =     12.21109  eV     1   --> A              
     e( 56 - 56) =     12.26809  eV     1   --> A              
     e( 57 - 57) =     12.30365  eV     1   --> A              
     e( 58 - 58) =     12.34527  eV     1   --> A              
     e( 59 - 59) =     12.58164  eV     1   --> A              
     e( 60 - 60) =     12.65683  eV     1   --> A              
     e( 61 - 61) =     12.83566  eV     1   --> A              
     e( 62 - 62) =     12.84648  eV     1   --> A              
     e( 63 - 63) =     12.99458  eV     1   --> A              
     e( 64 - 64) =     13.03790  eV     1   --> A              

 **************************************************************************

 **************************************************************************

                    xk=(   0.11255,   0.06498,   0.00000  )

     Band symmetry, C_1 (1)     point group:

     e(  1 -  1) =    -71.81411  eV     1   --> A              
     e(  2 -  2) =    -43.14685  eV     1   --> A              
     e(  3 -  3) =    -43.13824  eV     1   --> A              
     e(  4 -  4) =    -43.12579  eV     1   --> A              
     e(  5 -  5) =    -13.42986  eV     1   --> A              
     e(  6 -  6) =    -13.08368  eV     1   --> A              
     e(  7 -  7) =     -7.10448  eV     1   --> A              
     e(  8 -  8) =     -6.44381  eV     1   --> A              
     e(  9 -  9) =     -4.61476  eV     1   --> A              
     e( 10 - 10) =     -4.00294  eV     1   --> A              
     e( 11 - 11) =     -3.94802  eV     1   --> A              
     e( 12 - 12) =     -3.74473  eV     1   --> A              
     e( 13 - 13) =     -0.74570  eV     1   --> A              
     e( 14 - 14) =      0.32357  eV     1   --> A              
     e( 15 - 15) =      0.48027  eV     1   --> A              
     e( 16 - 16) =      1.08557  eV     1   --> A              
     e( 17 - 17) =      1.21988  eV     1   --> A              
     e( 18 - 18) =      1.98487  eV     1   --> A              
     e( 19 - 19) =      2.82670  eV     1   --> A              
     e( 20 - 20) =      3.48328  eV     1   --> A              
     e( 21 - 21) =      4.00685  eV     1   --> A              
     e( 22 - 22) =      4.52622  eV     1   --> A              
     e( 23 - 23) =      4.59831  eV     1   --> A              
     e( 24 - 24) =      4.70529  eV     1   --> A              
     e( 25 - 25) =      5.06708  eV     1   --> A              
     e( 26 - 26) =      5.23548  eV     1   --> A              
     e( 27 - 27) =      5.76409  eV     1   --> A              
     e( 28 - 28) =      5.81693  eV     1   --> A              
     e( 29 - 29) =      6.07514  eV     1   --> A              
     e( 30 - 30) =      6.30578  eV     1   --> A              
     e( 31 - 31) =      6.37448  eV     1   --> A              
     e( 32 - 32) =      6.44887  eV     1   --> A              
     e( 33 - 33) =      6.79497  eV     1   --> A              
     e( 34 - 34) =      7.01499  eV     1   --> A              
     e( 35 - 35) =      7.21288  eV     1   --> A              
     e( 36 - 36) =      7.56997  eV     1   --> A              
     e( 37 - 37) =      7.68347  eV     1   --> A              
     e( 38 - 38) =      8.01442  eV     1   --> A              
     e( 39 - 39) =      8.45202  eV     1   --> A              
     e( 40 - 40) =      8.74373  eV     1   --> A              
     e( 41 - 41) =      9.18930  eV     1   --> A              
     e( 42 - 42) =      9.31023  eV     1   --> A              
     e( 43 - 43) =      9.52510  eV     1   --> A              
     e( 44 - 44) =      9.58525  eV     1   --> A              
     e( 45 - 45) =      9.89197  eV     1   --> A              
     e( 46 - 46) =     10.64925  eV     1   --> A              
     e( 47 - 47) =     10.85598  eV     1   --> A              
     e( 48 - 48) =     11.08123  eV     1   --> A              
     e( 49 - 49) =     11.16929  eV     1   --> A              
     e( 50 - 50) =     11.20457  eV     1   --> A              
     e( 51 - 51) =     11.44318  eV     1   --> A              
     e( 52 - 52) =     11.48726  eV     1   --> A              
     e( 53 - 53) =     11.96931  eV     1   --> A              
     e( 54 - 54) =     12.14878  eV     1   --> A              
     e( 55 - 55) =     12.21672  eV     1   --> A              
     e( 56 - 56) =     12.27675  eV     1   --> A              
     e( 57 - 57) =     12.31098  eV     1   --> A              
     e( 58 - 58) =     12.35039  eV     1   --> A              
     e( 59 - 59) =     12.54552  eV     1   --> A              
     e( 60 - 60) =     12.67471  eV     1   --> A              
     e( 61 - 61) =     12.84488  eV     1   --> A              
     e( 62 - 62) =     12.85291  eV     1   --> A              
     e( 63 - 63) =     12.97215  eV     1   --> A              
     e( 64 - 64) =     13.09232  eV     1   --> A              

 **************************************************************************

 **************************************************************************

                    xk=(   0.11111,   0.06415,   0.00000  )

     Band symmetry, C_1 (1)     point group:

     e(  1 -  1) =    -71.81413  eV     1   --> A              
     e(  2 -  2) =    -43.14677  eV     1   --> A              
     e(  3 -  3) =    -43.13823  eV     1   --> A              
     e(  4 -  4) =    -43.12581  eV     1   --> A              
     e(  5 -  5) =    -13.44918  eV     1   --> A              
     e(  6 -  6) =    -13.08401  eV     1   --> A              
     e(  7 -  7) =     -7.07857  eV     1   --> A              
     e(  8 -  8) =     -6.42674  eV     1   --> A              
     e(  9 -  9) =     -4.64320  eV     1   --> A              
     e( 10 - 10) =     -4.00507  eV     1   --> A              
     e( 11 - 11) =     -3.92270  eV     1   --> A              
     e( 12 - 12) =     -3.73201  eV     1   --> A              
     e( 13 - 13) =     -0.74235  eV     1   --> A              
     e( 14 - 14) =      0.32583  eV     1   --> A              
     e( 15 - 15) =      0.48649  eV     1   --> A              
     e( 16 - 16) =      1.07378  eV     1   --> A              
     e( 17 - 17) =      1.21455  eV     1   --> A              
     e( 18 - 18) =      1.97280  eV     1   --> A              
     e( 19 - 19) =      2.85261  eV     1   --> A              
     e( 20 - 20) =      3.49944  eV     1   --> A              
     e( 21 - 21) =      3.97045  eV     1   --> A              
     e( 22 - 22) =      4.48361  eV     1   --> A              
     e( 23 - 23) =      4.54632  eV     1   --> A              
     e( 24 - 24) =      4.67751  eV     1   --> A              
     e( 25 - 25) =      5.01519  eV     1   --> A              
     e( 26 - 26) =      5.18241  eV     1   --> A              
     e( 27 - 27) =      5.75236  eV     1   --> A              
     e( 28 - 28) =      5.82849  eV     1   --> A              
     e( 29 - 29) =      6.05503  eV     1   --> A              
     e( 30 - 30) =      6.29715  eV     1   --> A              
     e( 31 - 31) =      6.44703  eV     1   --> A              
     e( 32 - 32) =      6.51933  eV     1   --> A              
     e( 33 - 33) =      6.85639  eV     1   --> A              
     e( 34 - 34) =      7.09108  eV     1   --> A              
     e( 35 - 35) =      7.18409  eV     1   --> A              
     e( 36 - 36) =      7.53460  eV     1   --> A              
     e( 37 - 37) =      7.73183  eV     1   --> A              
     e( 38 - 38) =      8.08595  eV     1   --> A              
     e( 39 - 39) =      8.43887  eV     1   --> A              
     e( 40 - 40) =      8.77998  eV     1   --> A              
     e( 41 - 41) =      9.15539  eV     1   --> A              
     e( 42 - 42) =      9.35392  eV     1   --> A              
     e( 43 - 43) =      9.52040  eV     1   --> A              
     e( 44 - 44) =      9.58196  eV     1   --> A              
     e( 45 - 45) =      9.92752  eV     1   --> A              
     e( 46 - 46) =     10.64682  eV     1   --> A              
     e( 47 - 47) =     10.86345  eV     1   --> A              
     e( 48 - 48) =     11.07166  eV     1   --> A              
     e( 49 - 49) =     11.11847  eV     1   --> A              
     e( 50 - 50) =     11.11944  eV     1   --> A              
     e( 51 - 51) =     11.42311  eV     1   --> A              
     e( 52 - 52) =     11.49562  eV     1   --> A              
     e( 53 - 53) =     11.91682  eV     1   --> A              
     e( 54 - 54) =     12.15480  eV     1   --> A              
     e( 55 - 55) =     12.22122  eV     1   --> A              
     e( 56 - 56) =     12.28673  eV     1   --> A              
     e( 57 - 57) =     12.31816  eV     1   --> A              
     e( 58 - 58) =     12.35721  eV     1   --> A              
     e( 59 - 59) =     12.50676  eV     1   --> A              
     e( 60 - 60) =     12.68935  eV     1   --> A              
     e( 61 - 61) =     12.85365  eV     1   --> A              
     e( 62 - 62) =     12.85989  eV     1   --> A              
     e( 63 - 63) =     12.95908  eV     1   --> A              
     e( 64 - 64) =     13.14692  eV     1   --> A              

 **************************************************************************

 **************************************************************************

                    xk=(   0.10967,   0.06332,   0.00000  )

     Band symmetry, C_1 (1)     point group:

     e(  1 -  1) =    -71.81414  eV     1   --> A              
     e(  2 -  2) =    -43.14668  eV     1   --> A              
     e(  3 -  3) =    -43.13821  eV     1   --> A              
     e(  4 -  4) =    -43.12584  eV     1   --> A              
     e(  5 -  5) =    -13.46926  eV     1   --> A              
     e(  6 -  6) =    -13.08492  eV     1   --> A              
     e(  7 -  7) =     -7.05080  eV     1   --> A              
     e(  8 -  8) =     -6.40846  eV     1   --> A              
     e(  9 -  9) =     -4.67151  eV     1   --> A              
     e( 10 - 10) =     -4.00702  eV     1   --> A              
     e( 11 - 11) =     -3.89753  eV     1   --> A              
     e( 12 - 12) =     -3.71864  eV     1   --> A              
     e( 13 - 13) =     -0.73871  eV     1   --> A              
     e( 14 - 14) =      0.32829  eV     1   --> A              
     e( 15 - 15) =      0.49252  eV     1   --> A              
     e( 16 - 16) =      1.06109  eV     1   --> A              
     e( 17 - 17) =      1.20881  eV     1   --> A              
     e( 18 - 18) =      1.96231  eV     1   --> A              
     e( 19 - 19) =      2.87965  eV     1   --> A              
     e( 20 - 20) =      3.51431  eV     1   --> A              
     e( 21 - 21) =      3.93162  eV     1   --> A              
     e( 22 - 22) =      4.43228  eV     1   --> A              
     e( 23 - 23) =      4.49717  eV     1   --> A              
     e( 24 - 24) =      4.66107  eV     1   --> A              
     e( 25 - 25) =      4.96327  eV     1   --> A              
     e( 26 - 26) =      5.13052  eV     1   --> A              
     e( 27 - 27) =      5.72909  eV     1   --> A              
     e( 28 - 28) =      5.84088  eV     1   --> A              
     e( 29 - 29) =      6.02929  eV     1   --> A              
     e( 30 - 30) =      6.29537  eV     1   --> A              
     e( 31 - 31) =      6.52394  eV     1   --> A              
     e( 32 - 32) =      6.59806  eV     1   --> A              
     e( 33 - 33) =      6.90892  eV     1   --> A              
     e( 34 - 34) =      7.16013  eV     1   --> A              
     e( 35 - 35) =      7.17055  eV     1   --> A              
     e( 36 - 36) =      7.49243  eV     1   --> A              
     e( 37 - 37) =      7.79075  eV     1   --> A              
     e( 38 - 38) =      8.15998  eV     1   --> A              
     e( 39 - 39) =      8.41882  eV     1   --> A              
     e( 40 - 40) =      8.82296  eV     1   --> A              
     e( 41 - 41) =      9.10639  eV     1   --> A              
     e( 42 - 42) =      9.40936  eV     1   --> A              
     e( 43 - 43) =      9.51420  eV     1   --> A              
     e( 44 - 44) =      9.57784  eV     1   --> A              
     e( 45 - 45) =      9.97193  eV     1   --> A              
     e( 46 - 46) =     10.63147  eV     1   --> A              
     e( 47 - 47) =     10.84321  eV     1   --> A              
     e( 48 - 48) =     11.02800  eV     1   --> A              
     e( 49 - 49) =     11.06151  eV     1   --> A              
     e( 50 - 50) =     11.09485  eV     1   --> A              
     e( 51 - 51) =     11.40572  eV     1   --> A              
     e( 52 - 52) =     11.51316  eV     1   --> A              
     e( 53 - 53) =     11.86457  eV     1   --> A              
     e( 54 - 54) =     12.16302  eV     1   --> A              
     e( 55 - 55) =     12.22321  eV     1   --> A              
     e( 56 - 56) =     12.29731  eV     1   --> A              
     e( 57 - 57) =     12.32464  eV     1   --> A              
     e( 58 - 58) =     12.36566  eV     1   --> A              
     e( 59 - 59) =     12.46988  eV     1   --> A              
     e( 60 - 60) =     12.70061  eV     1   --> A              
     e( 61 - 61) =     12.86135  eV     1   --> A              
     e( 62 - 62) =     12.86761  eV     1   --> A              
     e( 63 - 63) =     12.95351  eV     1   --> A              
     e( 64 - 64) =     13.17790  eV     1   --> A              

 **************************************************************************

 **************************************************************************

                    xk=(   0.10823,   0.06248,   0.00000  )

     Band symmetry, C_1 (1)     point group:

     e(  1 -  1) =    -71.81415  eV     1   --> A              
     e(  2 -  2) =    -43.14658  eV     1   --> A              
     e(  3 -  3) =    -43.13818  eV     1   --> A              
     e(  4 -  4) =    -43.12585  eV     1   --> A              
     e(  5 -  5) =    -13.49004  eV     1   --> A              
     e(  6 -  6) =    -13.08643  eV     1   --> A              
     e(  7 -  7) =     -7.02124  eV     1   --> A              
     e(  8 -  8) =     -6.38902  eV     1   --> A              
     e(  9 -  9) =     -4.69964  eV     1   --> A              
     e( 10 - 10) =     -4.00878  eV     1   --> A              
     e( 11 - 11) =     -3.87252  eV     1   --> A              
     e( 12 - 12) =     -3.70465  eV     1   --> A              
     e( 13 - 13) =     -0.73480  eV     1   --> A              
     e( 14 - 14) =      0.33095  eV     1   --> A              
     e( 15 - 15) =      0.49823  eV     1   --> A              
     e( 16 - 16) =      1.04752  eV     1   --> A              
     e( 17 - 17) =      1.20265  eV     1   --> A              
     e( 18 - 18) =      1.95363  eV     1   --> A              
     e( 19 - 19) =      2.90776  eV     1   --> A              
     e( 20 - 20) =      3.52743  eV     1   --> A              
     e( 21 - 21) =      3.89086  eV     1   --> A              
     e( 22 - 22) =      4.37630  eV     1   --> A              
     e( 23 - 23) =      4.44837  eV     1   --> A              
     e( 24 - 24) =      4.65362  eV     1   --> A              
     e( 25 - 25) =      4.91192  eV     1   --> A              
     e( 26 - 26) =      5.08049  eV     1   --> A              
     e( 27 - 27) =      5.69707  eV     1   --> A              
     e( 28 - 28) =      5.85410  eV     1   --> A              
     e( 29 - 29) =      5.99562  eV     1   --> A              
     e( 30 - 30) =      6.30733  eV     1   --> A              
     e( 31 - 31) =      6.60164  eV     1   --> A              
     e( 32 - 32) =      6.67978  eV     1   --> A              
     e( 33 - 33) =      6.94300  eV     1   --> A              
     e( 34 - 34) =      7.16414  eV     1   --> A              
     e( 35 - 35) =      7.23703  eV     1   --> A              
     e( 36 - 36) =      7.45523  eV     1   --> A              
     e( 37 - 37) =      7.85254  eV     1   --> A              
     e( 38 - 38) =      8.23509  eV     1   --> A              
     e( 39 - 39) =      8.39565  eV     1   --> A              
     e( 40 - 40) =      8.86772  eV     1   --> A              
     e( 41 - 41) =      9.05662  eV     1   --> A              
     e( 42 - 42) =      9.45046  eV     1   --> A              
     e( 43 - 43) =      9.52184  eV     1   --> A              
     e( 44 - 44) =      9.57272  eV     1   --> A              
     e( 45 - 45) =     10.02246  eV     1   --> A              
     e( 46 - 46) =     10.60628  eV     1   --> A              
     e( 47 - 47) =     10.80649  eV     1   --> A              
     e( 48 - 48) =     10.93419  eV     1   --> A              
     e( 49 - 49) =     11.01408  eV     1   --> A              
     e( 50 - 50) =     11.11910  eV     1   --> A              
     e( 51 - 51) =     11.38801  eV     1   --> A              
     e( 52 - 52) =     11.53663  eV     1   --> A              
     e( 53 - 53) =     11.82093  eV     1   --> A              
     e( 54 - 54) =     12.17249  eV     1   --> A              
     e( 55 - 55) =     12.22045  eV     1   --> A              
     e( 56 - 56) =     12.30804  eV     1   --> A              
     e( 57 - 57) =     12.32975  eV     1   --> A              
     e( 58 - 58) =     12.37572  eV     1   --> A              
     e( 59 - 59) =     12.44033  eV     1   --> A              
     e( 60 - 60) =     12.70848  eV     1   --> A              
     e( 61 - 61) =     12.86729  eV     1   --> A              
     e( 62 - 62) =     12.87625  eV     1   --> A              
     e( 63 - 63) =     12.95355  eV     1   --> A              
     e( 64 - 64) =     13.15104  eV     1   --> A              

 **************************************************************************

 **************************************************************************

                    xk=(   0.10678,   0.06165,   0.00000  )

     Band symmetry, C_1 (1)     point group:

     e(  1 -  1) =    -71.81416  eV     1   --> A              
     e(  2 -  2) =    -43.14647  eV     1   --> A              
     e(  3 -  3) =    -43.13816  eV     1   --> A              
     e(  4 -  4) =    -43.12588  eV     1   --> A              
     e(  5 -  5) =    -13.51146  eV     1   --> A              
     e(  6 -  6) =    -13.08854  eV     1   --> A              
     e(  7 -  7) =     -6.98992  eV     1   --> A              
     e(  8 -  8) =     -6.36846  eV     1   --> A              
     e(  9 -  9) =     -4.72752  eV     1   --> A              
     e( 10 - 10) =     -4.01032  eV     1   --> A              
     e( 11 - 11) =     -3.84767  eV     1   --> A              
     e( 12 - 12) =     -3.69007  eV     1   --> A              
     e( 13 - 13) =     -0.73061  eV     1   --> A              
     e( 14 - 14) =      0.33381  eV     1   --> A              
     e( 15 - 15) =      0.50350  eV     1   --> A              
     e( 16 - 16) =      1.03312  eV     1   --> A              
     e( 17 - 17) =      1.19608  eV     1   --> A              
     e( 18 - 18) =      1.94699  eV     1   --> A              
     e( 19 - 19) =      2.93690  eV     1   --> A              
     e( 20 - 20) =      3.53840  eV     1   --> A              
     e( 21 - 21) =      3.84869  eV     1   --> A              
     e( 22 - 22) =      4.31855  eV     1   --> A              
     e( 23 - 23) =      4.39928  eV     1   --> A              
     e( 24 - 24) =      4.65174  eV     1   --> A              
     e( 25 - 25) =      4.86176  eV     1   --> A              
     e( 26 - 26) =      5.03317  eV     1   --> A              
     e( 27 - 27) =      5.65927  eV     1   --> A              
     e( 28 - 28) =      5.86811  eV     1   --> A              
     e( 29 - 29) =      5.95505  eV     1   --> A              
     e( 30 - 30) =      6.33001  eV     1   --> A              
     e( 31 - 31) =      6.67801  eV     1   --> A              
     e( 32 - 32) =      6.76307  eV     1   --> A              
     e( 33 - 33) =      6.95314  eV     1   --> A              
     e( 34 - 34) =      7.19059  eV     1   --> A              
     e( 35 - 35) =      7.28868  eV     1   --> A              
     e( 36 - 36) =      7.44018  eV     1   --> A              
     e( 37 - 37) =      7.91445  eV     1   --> A              
     e( 38 - 38) =      8.30960  eV     1   --> A              
     e( 39 - 39) =      8.37297  eV     1   --> A              
     e( 40 - 40) =      8.90504  eV     1   --> A              
     e( 41 - 41) =      9.01570  eV     1   --> A              
     e( 42 - 42) =      9.45658  eV     1   --> A              
     e( 43 - 43) =      9.56244  eV     1   --> A              
     e( 44 - 44) =      9.56646  eV     1   --> A              
     e( 45 - 45) =     10.07698  eV     1   --> A              
     e( 46 - 46) =     10.57500  eV     1   --> A              
     e( 47 - 47) =     10.76351  eV     1   --> A              
     e( 48 - 48) =     10.83922  eV     1   --> A              
     e( 49 - 49) =     10.96489  eV     1   --> A              
     e( 50 - 50) =     11.13996  eV     1   --> A              
     e( 51 - 51) =     11.36834  eV     1   --> A              
     e( 52 - 52) =     11.56199  eV     1   --> A              
     e( 53 - 53) =     11.79584  eV     1   --> A              
     e( 54 - 54) =     12.18266  eV     1   --> A              
     e( 55 - 55) =     12.21040  eV     1   --> A              
     e( 56 - 56) =     12.31859  eV     1   --> A              
     e( 57 - 57) =     12.33356  eV     1   --> A              
     e( 58 - 58) =     12.38746  eV     1   --> A              
     e( 59 - 59) =     12.42278  eV     1   --> A              
     e( 60 - 60) =     12.71305  eV     1   --> A              
     e( 61 - 61) =     12.87057  eV     1   --> A              
     e( 62 - 62) =     12.88596  eV     1   --> A              
     e( 63 - 63) =     12.95767  eV     1   --> A              
     e( 64 - 64) =     13.11365  eV     1   --> A              

 **************************************************************************

 **************************************************************************

                    xk=(   0.10534,   0.06082,   0.00000  )

     Band symmetry, C_1 (1)     point group:

     e(  1 -  1) =    -71.81418  eV     1   --> A              
     e(  2 -  2) =    -43.14637  eV     1   --> A              
     e(  3 -  3) =    -43.13813  eV     1   --> A              
     e(  4 -  4) =    -43.12591  eV     1   --> A              
     e(  5 -  5) =    -13.53346  eV     1   --> A              
     e(  6 -  6) =    -13.09125  eV     1   --> A              
     e(  7 -  7) =     -6.95691  eV     1   --> A              
     e(  8 -  8) =     -6.34683  eV     1   --> A              
     e(  9 -  9) =     -4.75510  eV     1   --> A              
     e( 10 - 10) =     -4.01165  eV     1   --> A              
     e( 11 - 11) =     -3.82298  eV     1   --> A              
     e( 12 - 12) =     -3.67491  eV     1   --> A              
     e( 13 - 13) =     -0.72612  eV     1   --> A              
     e( 14 - 14) =      0.33686  eV     1   --> A              
     e( 15 - 15) =      0.50820  eV     1   --> A              
     e( 16 - 16) =      1.01793  eV     1   --> A              
     e( 17 - 17) =      1.18909  eV     1   --> A              
     e( 18 - 18) =      1.94256  eV     1   --> A              
     e( 19 - 19) =      2.96700  eV     1   --> A              
     e( 20 - 20) =      3.54681  eV     1   --> A              
     e( 21 - 21) =      3.80556  eV     1   --> A              
     e( 22 - 22) =      4.26036  eV     1   --> A              
     e( 23 - 23) =      4.35022  eV     1   --> A              
     e( 24 - 24) =      4.65173  eV     1   --> A              
     e( 25 - 25) =      4.81380  eV     1   --> A              
     e( 26 - 26) =      4.98981  eV     1   --> A              
     e( 27 - 27) =      5.61797  eV     1   --> A              
     e( 28 - 28) =      5.88288  eV     1   --> A              
     e( 29 - 29) =      5.90994  eV     1   --> A              
     e( 30 - 30) =      6.35826  eV     1   --> A              
     e( 31 - 31) =      6.74908  eV     1   --> A              
     e( 32 - 32) =      6.84707  eV     1   --> A              
     e( 33 - 33) =      6.95092  eV     1   --> A              
     e( 34 - 34) =      7.22634  eV     1   --> A              
     e( 35 - 35) =      7.30718  eV     1   --> A              
     e( 36 - 36) =      7.47303  eV     1   --> A              
     e( 37 - 37) =      7.97425  eV     1   --> A              
     e( 38 - 38) =      8.34443  eV     1   --> A              
     e( 39 - 39) =      8.39179  eV     1   --> A              
     e( 40 - 40) =      8.90538  eV     1   --> A              
     e( 41 - 41) =      9.01234  eV     1   --> A              
     e( 42 - 42) =      9.44877  eV     1   --> A              
     e( 43 - 43) =      9.55858  eV     1   --> A              
     e( 44 - 44) =      9.61489  eV     1   --> A              
     e( 45 - 45) =     10.13375  eV     1   --> A              
     e( 46 - 46) =     10.54156  eV     1   --> A              
     e( 47 - 47) =     10.71931  eV     1   --> A              
     e( 48 - 48) =     10.74404  eV     1   --> A              
     e( 49 - 49) =     10.91582  eV     1   --> A              
     e( 50 - 50) =     11.14380  eV     1   --> A              
     e( 51 - 51) =     11.34573  eV     1   --> A              
     e( 52 - 52) =     11.58790  eV     1   --> A              
     e( 53 - 53) =     11.79726  eV     1   --> A              
     e( 54 - 54) =     12.19249  eV     1   --> A              
[...]
     e( 31 - 31) =      6.02597  eV     1   --> A              
     e( 32 - 32) =      6.18421  eV     1   --> A              
     e( 33 - 33) =      6.66468  eV     1   --> A              
     e( 34 - 34) =      6.90249  eV     1   --> A              
     e( 35 - 35) =      6.98881  eV     1   --> A              
     e( 36 - 36) =      7.19037  eV     1   --> A              
     e( 37 - 37) =      7.79762  eV     1   --> A              
     e( 38 - 38) =      8.03130  eV     1   --> A              
     e( 39 - 39) =      8.31531  eV     1   --> A              
     e( 40 - 40) =      8.50086  eV     1   --> A              
     e( 41 - 41) =      8.92590  eV     1   --> A              
     e( 42 - 42) =      9.17101  eV     1   --> A              
     e( 43 - 43) =      9.62490  eV     1   --> A              
     e( 44 - 44) =      9.96904  eV     1   --> A              
     e( 45 - 45) =     10.01287  eV     1   --> A              
     e( 46 - 46) =     10.11309  eV     1   --> A              
     e( 47 - 47) =     10.42408  eV     1   --> A              
     e( 48 - 48) =     11.30858  eV     1   --> A              
     e( 49 - 49) =     11.55495  eV     1   --> A              
     e( 50 - 50) =     11.63987  eV     1   --> A              
     e( 51 - 51) =     11.75667  eV     1   --> A              
     e( 52 - 52) =     11.87049  eV     1   --> A              
     e( 53 - 53) =     11.89031  eV     1   --> A              
     e( 54 - 54) =     11.99991  eV     1   --> A              
     e( 55 - 55) =     12.07433  eV     1   --> A              
     e( 56 - 56) =     12.28753  eV     1   --> A              
     e( 57 - 57) =     12.29187  eV     1   --> A              
     e( 58 - 58) =     12.46153  eV     1   --> A              
     e( 59 - 59) =     12.52801  eV     1   --> A              
     e( 60 - 60) =     12.57534  eV     1   --> A              
     e( 61 - 61) =     12.70178  eV     1   --> A              
     e( 62 - 62) =     12.88814  eV     1   --> A              
     e( 63 - 63) =     13.05788  eV     1   --> A              
     e( 64 - 64) =     13.08342  eV     1   --> A              

 **************************************************************************

 **************************************************************************

                    xk=(   0.13131,   0.07248,   0.00000  )

     Band symmetry, C_1 (1)     point group:

     e(  1 -  1) =    -71.81405  eV     1   --> A              
     e(  2 -  2) =    -43.14737  eV     1   --> A              
     e(  3 -  3) =    -43.13838  eV     1   --> A              
     e(  4 -  4) =    -43.12569  eV     1   --> A              
     e(  5 -  5) =    -13.29518  eV     1   --> A              
     e(  6 -  6) =    -13.10033  eV     1   --> A              
     e(  7 -  7) =     -7.25655  eV     1   --> A              
     e(  8 -  8) =     -6.54400  eV     1   --> A              
     e(  9 -  9) =     -4.30760  eV     1   --> A              
     e( 10 - 10) =     -4.23533  eV     1   --> A              
     e( 11 - 11) =     -3.98234  eV     1   --> A              
     e( 12 - 12) =     -3.83430  eV     1   --> A              
     e( 13 - 13) =     -0.76037  eV     1   --> A              
     e( 14 - 14) =      0.30934  eV     1   --> A              
     e( 15 - 15) =      0.43239  eV     1   --> A              
     e( 16 - 16) =      1.15303  eV     1   --> A              
     e( 17 - 17) =      1.24535  eV     1   --> A              
     e( 18 - 18) =      2.12420  eV     1   --> A              
     e( 19 - 19) =      2.65573  eV     1   --> A              
     e( 20 - 20) =      3.34329  eV     1   --> A              
     e( 21 - 21) =      4.18868  eV     1   --> A              
     e( 22 - 22) =      4.89462  eV     1   --> A              
     e( 23 - 23) =      5.03091  eV     1   --> A              
     e( 24 - 24) =      5.38331  eV     1   --> A              
     e( 25 - 25) =      5.42202  eV     1   --> A              
     e( 26 - 26) =      5.49282  eV     1   --> A              
     e( 27 - 27) =      5.54988  eV     1   --> A              
     e( 28 - 28) =      5.72818  eV     1   --> A              
     e( 29 - 29) =      5.83398  eV     1   --> A              
     e( 30 - 30) =      6.00044  eV     1   --> A              
     e( 31 - 31) =      6.02508  eV     1   --> A              
     e( 32 - 32) =      6.18331  eV     1   --> A              
     e( 33 - 33) =      6.66135  eV     1   --> A              
     e( 34 - 34) =      6.90199  eV     1   --> A              
     e( 35 - 35) =      6.98785  eV     1   --> A              
     e( 36 - 36) =      7.18949  eV     1   --> A              
     e( 37 - 37) =      7.79412  eV     1   --> A              
     e( 38 - 38) =      8.03298  eV     1   --> A              
     e( 39 - 39) =      8.31439  eV     1   --> A              
     e( 40 - 40) =      8.50007  eV     1   --> A              
     e( 41 - 41) =      8.92218  eV     1   --> A              
     e( 42 - 42) =      9.19547  eV     1   --> A              
     e( 43 - 43) =      9.61354  eV     1   --> A              
     e( 44 - 44) =      9.96766  eV     1   --> A              
     e( 45 - 45) =     10.01208  eV     1   --> A              
     e( 46 - 46) =     10.11425  eV     1   --> A              
     e( 47 - 47) =     10.40818  eV     1   --> A              
     e( 48 - 48) =     11.34499  eV     1   --> A              
     e( 49 - 49) =     11.56130  eV     1   --> A              
     e( 50 - 50) =     11.62447  eV     1   --> A              
     e( 51 - 51) =     11.77120  eV     1   --> A              
     e( 52 - 52) =     11.90189  eV     1   --> A              
     e( 53 - 53) =     11.94121  eV     1   --> A              
     e( 54 - 54) =     12.05754  eV     1   --> A              
     e( 55 - 55) =     12.07116  eV     1   --> A              
     e( 56 - 56) =     12.29755  eV     1   --> A              
     e( 57 - 57) =     12.31102  eV     1   --> A              
     e( 58 - 58) =     12.41267  eV     1   --> A              
     e( 59 - 59) =     12.49594  eV     1   --> A              
     e( 60 - 60) =     12.60191  eV     1   --> A              
     e( 61 - 61) =     12.69393  eV     1   --> A              
     e( 62 - 62) =     12.87165  eV     1   --> A              
     e( 63 - 63) =     13.01391  eV     1   --> A              
     e( 64 - 64) =     13.03231  eV     1   --> A              

 **************************************************************************

 **************************************************************************

                    xk=(   0.13083,   0.07331,   0.00000  )

     Band symmetry, C_1 (1)     point group:

     e(  1 -  1) =    -71.81405  eV     1   --> A              
     e(  2 -  2) =    -43.14737  eV     1   --> A              
     e(  3 -  3) =    -43.13838  eV     1   --> A              
     e(  4 -  4) =    -43.12569  eV     1   --> A              
     e(  5 -  5) =    -13.29542  eV     1   --> A              
     e(  6 -  6) =    -13.10050  eV     1   --> A              
     e(  7 -  7) =     -7.25713  eV     1   --> A              
     e(  8 -  8) =     -6.54447  eV     1   --> A              
     e(  9 -  9) =     -4.30766  eV     1   --> A              
     e( 10 - 10) =     -4.23422  eV     1   --> A              
     e( 11 - 11) =     -3.98084  eV     1   --> A              
     e( 12 - 12) =     -3.83168  eV     1   --> A              
     e( 13 - 13) =     -0.76288  eV     1   --> A              
     e( 14 - 14) =      0.31013  eV     1   --> A              
     e( 15 - 15) =      0.43220  eV     1   --> A              
     e( 16 - 16) =      1.15342  eV     1   --> A              
     e( 17 - 17) =      1.24830  eV     1   --> A              
     e( 18 - 18) =      2.12232  eV     1   --> A              
     e( 19 - 19) =      2.65045  eV     1   --> A              
     e( 20 - 20) =      3.34064  eV     1   --> A              
     e( 21 - 21) =      4.18772  eV     1   --> A              
     e( 22 - 22) =      4.89381  eV     1   --> A              
     e( 23 - 23) =      5.03249  eV     1   --> A              
     e( 24 - 24) =      5.38313  eV     1   --> A              
     e( 25 - 25) =      5.42132  eV     1   --> A              
     e( 26 - 26) =      5.49213  eV     1   --> A              
     e( 27 - 27) =      5.54925  eV     1   --> A              
     e( 28 - 28) =      5.73858  eV     1   --> A              
     e( 29 - 29) =      5.82533  eV     1   --> A              
     e( 30 - 30) =      5.99974  eV     1   --> A              
     e( 31 - 31) =      6.02445  eV     1   --> A              
     e( 32 - 32) =      6.18266  eV     1   --> A              
     e( 33 - 33) =      6.65895  eV     1   --> A              
     e( 34 - 34) =      6.90163  eV     1   --> A              
     e( 35 - 35) =      6.98716  eV     1   --> A              
     e( 36 - 36) =      7.18886  eV     1   --> A              
     e( 37 - 37) =      7.79160  eV     1   --> A              
     e( 38 - 38) =      8.03416  eV     1   --> A              
     e( 39 - 39) =      8.31373  eV     1   --> A              
     e( 40 - 40) =      8.49950  eV     1   --> A              
     e( 41 - 41) =      8.91953  eV     1   --> A              
     e( 42 - 42) =      9.21435  eV     1   --> A              
     e( 43 - 43) =      9.60420  eV     1   --> A              
     e( 44 - 44) =      9.96665  eV     1   --> A              
     e( 45 - 45) =     10.01151  eV     1   --> A              
     e( 46 - 46) =     10.11506  eV     1   --> A              
     e( 47 - 47) =     10.39667  eV     1   --> A              
     e( 48 - 48) =     11.37579  eV     1   --> A              
     e( 49 - 49) =     11.56565  eV     1   --> A              
     e( 50 - 50) =     11.60792  eV     1   --> A              
     e( 51 - 51) =     11.78257  eV     1   --> A              
     e( 52 - 52) =     11.90679  eV     1   --> A              
     e( 53 - 53) =     12.01149  eV     1   --> A              
     e( 54 - 54) =     12.06949  eV     1   --> A              
     e( 55 - 55) =     12.12155  eV     1   --> A              
     e( 56 - 56) =     12.28263  eV     1   --> A              
     e( 57 - 57) =     12.30117  eV     1   --> A              
     e( 58 - 58) =     12.40195  eV     1   --> A              
     e( 59 - 59) =     12.43069  eV     1   --> A              
     e( 60 - 60) =     12.66764  eV     1   --> A              
     e( 61 - 61) =     12.68848  eV     1   --> A              
     e( 62 - 62) =     12.85819  eV     1   --> A              
     e( 63 - 63) =     12.94399  eV     1   --> A              
     e( 64 - 64) =     13.01222  eV     1   --> A              

 **************************************************************************

 **************************************************************************

                    xk=(   0.13035,   0.07415,   0.00000  )

     Band symmetry, C_1 (1)     point group:

     e(  1 -  1) =    -71.81405  eV     1   --> A              
     e(  2 -  2) =    -43.14738  eV     1   --> A              
     e(  3 -  3) =    -43.13837  eV     1   --> A              
     e(  4 -  4) =    -43.12569  eV     1   --> A              
     e(  5 -  5) =    -13.29556  eV     1   --> A              
     e(  6 -  6) =    -13.10061  eV     1   --> A              
     e(  7 -  7) =     -7.25748  eV     1   --> A              
     e(  8 -  8) =     -6.54475  eV     1   --> A              
     e(  9 -  9) =     -4.30770  eV     1   --> A              
     e( 10 - 10) =     -4.23356  eV     1   --> A              
     e( 11 - 11) =     -3.97994  eV     1   --> A              
     e( 12 - 12) =     -3.83010  eV     1   --> A              
     e( 13 - 13) =     -0.76438  eV     1   --> A              
     e( 14 - 14) =      0.31060  eV     1   --> A              
     e( 15 - 15) =      0.43208  eV     1   --> A              
     e( 16 - 16) =      1.15366  eV     1   --> A              
     e( 17 - 17) =      1.25008  eV     1   --> A              
     e( 18 - 18) =      2.12120  eV     1   --> A              
     e( 19 - 19) =      2.64725  eV     1   --> A              
     e( 20 - 20) =      3.33905  eV     1   --> A              
     e( 21 - 21) =      4.18714  eV     1   --> A              
     e( 22 - 22) =      4.89332  eV     1   --> A              
     e( 23 - 23) =      5.03343  eV     1   --> A              
     e( 24 - 24) =      5.38301  eV     1   --> A              
     e( 25 - 25) =      5.42090  eV     1   --> A              
     e( 26 - 26) =      5.49171  eV     1   --> A              
     e( 27 - 27) =      5.54886  eV     1   --> A              
     e( 28 - 28) =      5.74608  eV     1   --> A              
     e( 29 - 29) =      5.81891  eV     1   --> A              
     e( 30 - 30) =      5.99933  eV     1   --> A              
     e( 31 - 31) =      6.02407  eV     1   --> A              
     e( 32 - 32) =      6.18227  eV     1   --> A              
     e( 33 - 33) =      6.65749  eV     1   --> A              
     e( 34 - 34) =      6.90141  eV     1   --> A              
     e( 35 - 35) =      6.98675  eV     1   --> A              
     e( 36 - 36) =      7.18848  eV     1   --> A              
     e( 37 - 37) =      7.79008  eV     1   --> A              
     e( 38 - 38) =      8.03485  eV     1   --> A              
     e( 39 - 39) =      8.31334  eV     1   --> A              
     e( 40 - 40) =      8.49916  eV     1   --> A              
     e( 41 - 41) =      8.91794  eV     1   --> A              
     e( 42 - 42) =      9.22637  eV     1   --> A              
     e( 43 - 43) =      9.59798  eV     1   --> A              
     e( 44 - 44) =      9.96604  eV     1   --> A              
     e( 45 - 45) =     10.01116  eV     1   --> A              
     e( 46 - 46) =     10.11554  eV     1   --> A              
     e( 47 - 47) =     10.38970  eV     1   --> A              
     e( 48 - 48) =     11.39754  eV     1   --> A              
     e( 49 - 49) =     11.56818  eV     1   --> A              
     e( 50 - 50) =     11.59452  eV     1   --> A              
     e( 51 - 51) =     11.78968  eV     1   --> A              
     e( 52 - 52) =     11.90894  eV     1   --> A              
     e( 53 - 53) =     12.06522  eV     1   --> A              
     e( 54 - 54) =     12.08436  eV     1   --> A              
     e( 55 - 55) =     12.18654  eV     1   --> A              
     e( 56 - 56) =     12.22374  eV     1   --> A              
     e( 57 - 57) =     12.29048  eV     1   --> A              
     e( 58 - 58) =     12.37809  eV     1   --> A              
     e( 59 - 59) =     12.41135  eV     1   --> A              
     e( 60 - 60) =     12.68524  eV     1   --> A              
     e( 61 - 61) =     12.73558  eV     1   --> A              
     e( 62 - 62) =     12.84916  eV     1   --> A              
     e( 63 - 63) =     12.87411  eV     1   --> A              
     e( 64 - 64) =     12.99936  eV     1   --> A              

 **************************************************************************

 **************************************************************************

                    xk=(   0.12987,   0.07498,   0.00000  )

     Band symmetry, C_1 (1)     point group:

     e(  1 -  1) =    -71.81405  eV     1   --> A              
     e(  2 -  2) =    -43.14738  eV     1   --> A              
     e(  3 -  3) =    -43.13837  eV     1   --> A              
     e(  4 -  4) =    -43.12569  eV     1   --> A              
     e(  5 -  5) =    -13.29561  eV     1   --> A              
     e(  6 -  6) =    -13.10064  eV     1   --> A              
     e(  7 -  7) =     -7.25760  eV     1   --> A              
     e(  8 -  8) =     -6.54485  eV     1   --> A              
     e(  9 -  9) =     -4.30771  eV     1   --> A              
     e( 10 - 10) =     -4.23334  eV     1   --> A              
     e( 11 - 11) =     -3.97964  eV     1   --> A              
     e( 12 - 12) =     -3.82957  eV     1   --> A              
     e( 13 - 13) =     -0.76488  eV     1   --> A              
     e( 14 - 14) =      0.31076  eV     1   --> A              
     e( 15 - 15) =      0.43204  eV     1   --> A              
     e( 16 - 16) =      1.15373  eV     1   --> A              
     e( 17 - 17) =      1.25068  eV     1   --> A              
     e( 18 - 18) =      2.12082  eV     1   --> A              
     e( 19 - 19) =      2.64618  eV     1   --> A              
     e( 20 - 20) =      3.33852  eV     1   --> A              
     e( 21 - 21) =      4.18695  eV     1   --> A              
     e( 22 - 22) =      4.89316  eV     1   --> A              
     e( 23 - 23) =      5.03375  eV     1   --> A              
     e( 24 - 24) =      5.38298  eV     1   --> A              
     e( 25 - 25) =      5.42076  eV     1   --> A              
     e( 26 - 26) =      5.49158  eV     1   --> A              
     e( 27 - 27) =      5.54874  eV     1   --> A              
     e( 28 - 28) =      5.74892  eV     1   --> A              
     e( 29 - 29) =      5.81644  eV     1   --> A              
     e( 30 - 30) =      5.99919  eV     1   --> A              
     e( 31 - 31) =      6.02395  eV     1   --> A              
     e( 32 - 32) =      6.18214  eV     1   --> A              
     e( 33 - 33) =      6.65700  eV     1   --> A              
     e( 34 - 34) =      6.90134  eV     1   --> A              
     e( 35 - 35) =      6.98661  eV     1   --> A              
     e( 36 - 36) =      7.18836  eV     1   --> A              
     e( 37 - 37) =      7.78957  eV     1   --> A              
     e( 38 - 38) =      8.03508  eV     1   --> A              
     e( 39 - 39) =      8.31321  eV     1   --> A              
     e( 40 - 40) =      8.49904  eV     1   --> A              
     e( 41 - 41) =      8.91741  eV     1   --> A              
     e( 42 - 42) =      9.23051  eV     1   --> A              
     e( 43 - 43) =      9.59578  eV     1   --> A              
     e( 44 - 44) =      9.96583  eV     1   --> A              
     e( 45 - 45) =     10.01104  eV     1   --> A              
     e( 46 - 46) =     10.11570  eV     1   --> A              
     e( 47 - 47) =     10.38737  eV     1   --> A              
     e( 48 - 48) =     11.40564  eV     1   --> A              
     e( 49 - 49) =     11.56901  eV     1   --> A              
     e( 50 - 50) =     11.58918  eV     1   --> A              
     e( 51 - 51) =     11.79208  eV     1   --> A              
     e( 52 - 52) =     11.90955  eV     1   --> A              
     e( 53 - 53) =     12.06664  eV     1   --> A              
     e( 54 - 54) =     12.13745  eV     1   --> A              
     e( 55 - 55) =     12.17116  eV     1   --> A              
     e( 56 - 56) =     12.23996  eV     1   --> A              
     e( 57 - 57) =     12.25650  eV     1   --> A              
     e( 58 - 58) =     12.35927  eV     1   --> A              
     e( 59 - 59) =     12.41606  eV     1   --> A              
     e( 60 - 60) =     12.68417  eV     1   --> A              
     e( 61 - 61) =     12.80400  eV     1   --> A              
     e( 62 - 62) =     12.80508  eV     1   --> A              
     e( 63 - 63) =     12.84594  eV     1   --> A              
     e( 64 - 64) =     12.99493  eV     1   --> A              

 **************************************************************************
 
     BANDS        :  1m 7.85s CPU     1m47.30s WALL

 
   This run was terminated on:  17: 8: 4  20Jun2023            

=------------------------------------------------------------------------------=
   JOB DONE.
=------------------------------------------------------------------------------=
