
     Program PWSCF v.6.1 starts on 20Jun2023 at  9:47:17 

     This program is part of the open-source Quantum ESPRESSO suite
     for quantum simulation of materials; please cite
         "P. Giannozzi et al., J. Phys.:Condens. Matter 21 395502 (2009);
          URL http://www.quantum-espresso.org", 
     in publications or presentations arising from this work. More details at
     http://www.quantum-espresso.org/quote

     Parallel version (MPI), running on    16 processors
     R & G space division:  proc/nbgrp/npool/nimage =      16
     Reading input from bands.in
     Message from routine read_cards :
     DEPRECATED: no units specified in CELL_PARAMETERS card

     Current dimensions of program PWSCF are:
     Max number of different atomic species (ntypx) = 10
     Max number of k-points (npk) =  40000
     Max angular momentum in pseudopotentials (lmaxx) =  3

     Atomic positions and unit cell read from directory:
     ././crte2.save/
 
               file Cr.pbe.UPF: wavefunction(s)  3P renormalized
               file Te.pbe.UPF: wavefunction(s)  5S renormalized

     -------------------------------------
     Parameters for Dispersion Correction:
     -------------------------------------
       atom      VdW radius       C_6     

        Cr         2.952        374.666
        Te         3.575       1101.101

     Subspace diagonalization in iterative solution of the eigenvalue problem:
     a serial algorithm will be used

 
     Parallelization info
     --------------------
     sticks:   dense  smooth     PW     G-vecs:    dense   smooth      PW
     Min         182      72     20                68262    17258    2566
     Max         183      73     23                68296    17305    2598
     Sum        2917    1159    337              1092513   276457   41337
 


     bravais-lattice index     =            0
     lattice parameter (alat)  =       1.8897  a.u.
     unit-cell volume          =    2858.6607 (a.u.)^3
     number of atoms/cell      =            3
     number of atomic types    =            2
     number of electrons       =        26.00
     number of Kohn-Sham states=           64
     kinetic-energy cutoff     =      80.0000  Ry
     charge density cutoff     =     800.0000  Ry
     Exchange-correlation      = PBE ( 1  4  3  4 0 0)

     celldm(1)=   1.889726  celldm(2)=   0.000000  celldm(3)=   0.000000
     celldm(4)=   0.000000  celldm(5)=   0.000000  celldm(6)=   0.000000

     crystal axes: (cart. coord. in units of alat)
               a(1) = (   3.850000   0.000000   0.000000 )  
               a(2) = (  -1.925000   3.334198   0.000000 )  
               a(3) = (   0.000000   0.000000  33.000000 )  

     reciprocal axes: (cart. coord. in units 2 pi/alat)
               b(1) = (  0.259740  0.149961  0.000000 )  
               b(2) = (  0.000000  0.299922  0.000000 )  
               b(3) = (  0.000000  0.000000  0.030303 )  


     PseudoPot. # 1 for Cr read from file:
     ./Cr.pbe.UPF
     MD5 check sum: 793d051e4f89dd1e3290b85340a92c0a
     Pseudo is Ultrasoft + core correction, Zval = 14.0
     Generated using "atomic" code by A. Dal Corso  v.6.2.2
     Using radial grid of 1183 points,  6 beta functions with: 
                l(1) =   0
                l(2) =   0
                l(3) =   1
                l(4) =   1
                l(5) =   2
                l(6) =   2
     Q(r) pseudized with 0 coefficients 


     PseudoPot. # 2 for Te read from file:
     ./Te.pbe.UPF
     MD5 check sum: 203a1e86ef55f0cd9de2762a27c58f54
     Pseudo is Ultrasoft + core correction, Zval =  6.0
     Generated using "atomic" code by A. Dal Corso  v.6.3
     Using radial grid of 1245 points,  6 beta functions with: 
                l(1) =   0
                l(2) =   0
                l(3) =   1
                l(4) =   1
                l(5) =   2
                l(6) =   2
     Q(r) pseudized with 0 coefficients 


     atomic species   valence    mass     pseudopotential
        Cr            14.00    51.99610     Cr( 1.00)
        Te             6.00   127.60000     Te( 1.00)

     Starting magnetic structure 
     atomic species   magnetization
        Cr           1.000
        Te           0.000


     Simplified LDA+U calculation (l_max = 2) with parameters (eV):
     atomic species    L          U    alpha       J0     beta
        Cr             2     2.0000   0.0000   0.0000   0.0000



     No symmetry found



   Cartesian axes

     site n.     atom                  positions (alat units)
         1           Cr  tau(   1) = (   0.0000000   0.0000000  16.1940896  )
         2           Te  tau(   2) = (   1.9234021   1.1104546  14.6414396  )
         3           Te  tau(   3) = (  -0.0000192   2.2209424  17.7467396  )

     number of k points=   271  gaussian smearing, width (Ry)=  0.0050

     Number of k-points >= 100: set verbosity='high' to print them.

     Dense  grid:  1092513 G-vectors     FFT dimensions: (  72,  72, 576)

     Smooth grid:   276457 G-vectors     FFT dimensions: (  45,  45, 360)

     Estimated max dynamical RAM per process >      53.46MB

     Estimated total allocated dynamical RAM >     855.38MB
     Generating pointlists ...
     new r_m :   0.4125 (alat units)  0.7795 (a.u.) for type    1
     new r_m :   0.4125 (alat units)  0.7795 (a.u.) for type    2

     The potential is recalculated from file :
     ././crte2.save/charge-density.dat


     negative rho (up, down):  2.444E-04 2.426E-04
     Number of +U iterations with fixed ns =  0
     Starting occupations:
 --- enter write_ns ---
 LDA+U parameters:
U( 1)     =  2.00000000
alpha( 1) =  0.00000000
atom    1   Tr[ns(na)] (up, down, total) =   4.34301  0.97028  5.31329
   spin  1
    eigenvalues: 
  0.728  0.728  0.958  0.958  0.972
    eigenvectors:
  0.000  0.000  0.000  0.000  1.000
  0.177  0.499  0.243  0.081  0.000
  0.500  0.177  0.081  0.242  0.000
  0.238  0.085  0.169  0.508  0.000
  0.085  0.239  0.508  0.169  0.000
    occupations:
  0.972 -0.000  0.000  0.000 -0.000
 -0.000  0.802 -0.000  0.000 -0.108
  0.000 -0.000  0.802 -0.108  0.000
  0.000  0.000 -0.108  0.883  0.000
 -0.000 -0.108  0.000  0.000  0.883
   spin  2
    eigenvalues: 
  0.080  0.083  0.083  0.362  0.363
    eigenvectors:
  1.000  0.000  0.000  0.000  0.000
  0.000  0.084  0.251  0.498  0.167
  0.000  0.251  0.084  0.166  0.499
  0.000  0.499  0.166  0.084  0.251
  0.000  0.166  0.498  0.252  0.084
    occupations:
  0.080  0.000 -0.000 -0.000  0.000
  0.000  0.268  0.000  0.000  0.132
 -0.000  0.000  0.269  0.132  0.000
 -0.000  0.000  0.132  0.176 -0.000
  0.000  0.132  0.000 -0.000  0.176
atomic mag. moment =     3.372724
N of occupied +U levels =    5.313287
 --- exit write_ns ---
 Atomic wfc used for LDA+U Projector are NOT orthogonalized
     Starting wfc are   18 randomized atomic wfcs +   46 random wfc

     Band Structure Calculation
     Davidson diagonalization with overlap
     c_bands:  1 eigenvalues not converged
     c_bands:  1 eigenvalues not converged

     ethr =  3.85E-09,  avg # of iterations = 26.6

     total cpu time spent up to now is     1327.0 secs

     End of band structure calculation

     Number of k-points >= 100: set verbosity='high' to print the bands.

     Writing output data file ./crte2.save
 
     init_run     :     16.41s CPU     25.99s WALL (       1 calls)
     electrons    :   1152.66s CPU   1298.22s WALL (       1 calls)

     Called by init_run:
     wfcinit      :     14.41s CPU     23.23s WALL (       1 calls)
     potinit      :      0.45s CPU      0.86s WALL (       1 calls)

     Called by electrons:
     c_bands      :   1152.66s CPU   1298.22s WALL (       1 calls)
     v_of_rho     :      0.18s CPU      0.22s WALL (       1 calls)
     newd         :      0.38s CPU      0.61s WALL (       1 calls)

     Called by c_bands:
     init_us_2    :      0.76s CPU      0.81s WALL (    1084 calls)
     cegterg      :   1059.18s CPU   1142.02s WALL (     921 calls)

     Called by sum_band:

     Called by *egterg:
     h_psi        :    738.64s CPU    824.35s WALL (   15883 calls)
     s_psi        :     18.28s CPU     18.51s WALL (   16425 calls)
     g_psi        :      3.27s CPU      3.31s WALL (   14420 calls)
     cdiaghg      :    140.87s CPU    141.83s WALL (   14962 calls)

     Called by h_psi:
     h_psi:pot    :    717.80s CPU    803.18s WALL (   15883 calls)
     h_psi:calbec :     17.39s CPU     18.32s WALL (   15883 calls)
     vloc_psi     :    681.05s CPU    765.21s WALL (   15883 calls)
     add_vuspsi   :     19.25s CPU     19.57s WALL (   15883 calls)
     vhpsi        :     10.36s CPU     10.50s WALL (   15883 calls)

     General routines
     calbec       :     37.60s CPU     38.70s WALL (   32308 calls)
     fft          :      0.14s CPU      0.20s WALL (      23 calls)
     ffts         :      0.00s CPU      0.02s WALL (       2 calls)
     fftw         :    450.68s CPU    510.85s WALL ( 1063260 calls)
     interpolate  :      0.01s CPU      0.02s WALL (       2 calls)
     davcio       :      0.27s CPU     65.27s WALL (    1626 calls)
 
     Parallel routines
     fft_scatter  :    213.86s CPU    246.34s WALL ( 1063285 calls)

     Hubbard U routines
     vhpsi        :     10.36s CPU     10.50s WALL (   15883 calls)
 
     PWSCF        : 19m33.67s CPU    23m33.79s WALL

 
   This run was terminated on:  10:10:51  20Jun2023            

=------------------------------------------------------------------------------=
   JOB DONE.
=------------------------------------------------------------------------------=
